LAMMPS data file via write_data, version 3 Mar 2020, timestep = 500000

320 atoms
4 atom types
212 bonds
1 bond types
106 angles
1 angle types

3.5980164197346287e-01 1.5140198358026147e+01 xlo xhi
3.5980164197346287e-01 1.5140198358026147e+01 ylo yhi
3.5980164197346287e-01 1.5140198358026147e+01 zlo zhi

Masses

1 1.008
2 15.9994
3 22.9898
4 35.453

Bond Coeffs # harmonic

1 450 0.9572

Angle Coeffs # harmonic

1 55 104.52

Atoms # full

206 69 1 4.1499999999999998e-01 2.3072874090016686e+00 5.4320806580383363e-01 1.4834071644453366e+00 -1 4 0
207 69 1 4.1499999999999998e-01 3.7533344629598400e+00 9.3514587851907671e-01 1.6848257936511677e+00 -1 4 0
226 76 2 -8.2999999999999996e-01 1.5294536432463526e+00 3.7467301107839623e+00 3.7179864805860054e+00 -1 3 3
227 76 1 4.1499999999999998e-01 1.7914854172080277e+00 2.8476905074488821e+00 3.9159844445478784e+00 -1 3 3
48 16 1 4.1499999999999998e-01 3.6319014380845389e+00 1.6915332585849145e+00 3.9539188091882522e+00 -2 0 -2
15 5 1 4.1499999999999998e-01 4.7805375682625142e+00 3.1601570341159166e+00 2.6937477033477921e+00 -1 0 2
14 5 1 4.1499999999999998e-01 5.3439888421546993e+00 2.2558674859440107e+00 1.6606443022741388e+00 -1 0 2
13 5 2 -8.2999999999999996e-01 4.7012700686769353e+00 2.2629645738882695e+00 2.3698691705520307e+00 -1 0 2
5 2 1 4.1499999999999998e-01 7.4775735891687525e+00 2.6748399608329105e+00 8.5179598414208968e-01 -1 4 -1
4 2 2 -8.2999999999999996e-01 6.6144713215805000e+00 2.7087317937207041e+00 4.3943593855595919e-01 -1 4 -1
133 45 2 -8.2999999999999996e-01 8.9482558879206096e+00 1.3569165823623623e+00 1.4051348045209950e+00 3 -1 3
135 45 1 4.1499999999999998e-01 8.9917468772871310e+00 1.1337647712859535e+00 4.7537867808838336e-01 3 -1 3
170 57 1 4.1499999999999998e-01 8.2918925170953379e+00 7.6561234712704862e-01 2.9152291838258262e+00 0 4 0
169 57 2 -8.2999999999999996e-01 7.9978025976653750e+00 4.0000968827976580e-01 3.7494849900490843e+00 0 4 0
134 45 1 4.1499999999999998e-01 9.8580500213338631e+00 1.2269691775376954e+00 1.6725736992357620e+00 3 -1 3
96 32 1 4.1499999999999998e-01 1.4775193423372482e+01 1.6289117795065535e+00 2.2234168613393233e+00 0 -1 3
95 32 1 4.1499999999999998e-01 1.4514381791521920e+01 1.1933285062396051e+00 7.4111136098256591e-01 0 -1 3
94 32 2 -8.2999999999999996e-01 1.5079751138697933e+01 1.0754035413247305e+00 1.5043844055164779e+00 0 -1 3
192 64 1 4.1499999999999998e-01 1.1847129560415919e+01 9.1288605370155307e-01 3.2211718864612853e+00 -1 1 0
103 35 2 -8.2999999999999996e-01 1.1823532183538038e+01 7.2152592651994341e-01 1.3127981238336384e+00 2 4 -1
104 35 1 4.1499999999999998e-01 1.2538419278461760e+01 1.1915133316382400e+00 8.8363206714367604e-01 2 4 -1
74 25 1 4.1499999999999998e-01 1.8240575762046014e+00 4.1443668455426064e+00 1.9737612049367748e+00 1 -3 2
90 30 1 4.1499999999999998e-01 5.6272416543911619e-01 5.4389025039869132e+00 2.6840218558372468e+00 -2 -2 1
89 30 1 4.1499999999999998e-01 5.5343513114644793e-01 6.8288214066852584e+00 2.9868686909386306e+00 -2 -2 1
75 25 1 4.1499999999999998e-01 2.8786495062800541e+00 4.6223757054559993e+00 1.0773063593143029e+00 1 -3 2
73 25 2 -8.2999999999999996e-01 1.9618334436541049e+00 4.3489099534775173e+00 1.0489279572192181e+00 1 -3 2
314 105 1 4.1499999999999998e-01 7.0580771738484289e+00 4.8541939864030468e+00 2.1992690117550415e+00 0 -3 -1
113 38 1 4.1499999999999998e-01 4.6600609454728650e+00 6.1222208508177802e+00 1.2786313520501822e+00 2 1 0
163 55 2 -8.2999999999999996e-01 5.5271865992705163e+00 4.6890225443468436e+00 3.6445065399348491e+00 3 -1 -1
114 38 1 4.1499999999999998e-01 4.8644225353485533e+00 5.0228099995611704e+00 2.2137562019253458e+00 2 1 0
112 38 2 -8.2999999999999996e-01 4.4230539124806851e+00 5.2008049440084845e+00 1.3833050267959957e+00 2 1 0
315 105 1 4.1499999999999998e-01 8.5760062648541542e+00 5.1595450227384898e+00 2.3454486849041682e+00 0 -3 -1
313 105 2 -8.2999999999999996e-01 7.8586161011840163e+00 5.0651603469409894e+00 1.7188885653934853e+00 0 -3 -1
196 66 2 -8.2999999999999996e-01 8.2656010664759343e+00 7.6414891008943613e+00 4.4193635909265117e-01 0 3 2
197 66 1 4.1499999999999998e-01 8.3041180113629807e+00 6.6851983341315728e+00 4.2932368230514295e-01 0 3 2
88 30 2 -8.2999999999999996e-01 1.4698276125897539e+01 6.1258075953785820e+00 2.8527568981054179e+00 -3 -2 1
294 98 1 4.1499999999999998e-01 1.2920248963895748e+01 7.3346095734082946e+00 2.0381058929771809e+00 2 0 1
293 98 1 4.1499999999999998e-01 1.2344003221900898e+01 7.1860512467280966e+00 7.4880430404066489e-01 2 0 1
212 71 1 4.1499999999999998e-01 1.3588467920567446e+01 5.6840519013750761e+00 3.9714915676490015e+00 -1 0 -1
225 75 1 4.1499999999999998e-01 1.6464524377605103e+00 8.5983399777252636e+00 2.3627838058262807e+00 2 0 0
223 75 2 -8.2999999999999996e-01 1.6710550880088213e+00 7.9315568475851670e+00 3.0490341285317220e+00 2 0 0
224 75 1 4.1499999999999998e-01 2.6242945063110805e+00 7.8451456420026764e+00 3.0476290896967764e+00 2 0 0
153 51 1 4.1499999999999998e-01 1.1930931307090682e+00 1.0328867342338096e+01 8.3629844207003035e-01 2 -1 0
151 51 2 -8.2999999999999996e-01 1.7014228417579667e+00 9.5360405847610181e+00 1.0070658123674887e+00 2 -1 0
124 42 2 -8.2999999999999996e-01 4.5887535182012407e+00 7.8359210952147027e+00 5.7773345754812255e-01 4 0 -1
126 42 1 4.1499999999999998e-01 5.1802483489613618e+00 8.5813343904502268e+00 4.7463395920831886e-01 4 0 -1
61 21 2 -8.2999999999999996e-01 5.3249720686159971e+00 9.4868729592094923e+00 3.3960910971495242e+00 3 0 0
62 21 1 4.1499999999999998e-01 5.1077939815841553e+00 8.8756569886622358e+00 2.6922565706510166e+00 3 0 0
179 60 1 4.1499999999999998e-01 4.6531043118181659e+00 1.0984411263378320e+01 3.4217278121681760e+00 -1 0 3
198 66 1 4.1499999999999998e-01 8.3701641292087992e+00 7.9344614900884904e+00 1.3471266511938280e+00 0 3 2
299 100 1 4.1499999999999998e-01 1.0003317545082997e+01 9.5682600671513107e+00 2.1556989016522290e+00 0 0 2
300 100 1 4.1499999999999998e-01 1.1405639723104620e+01 9.2288684404234900e+00 1.8679525374654218e+00 0 0 2
298 100 2 -8.2999999999999996e-01 1.0842923760513923e+01 9.9944304079613779e+00 1.9837222979877598e+00 0 0 2
99 33 1 4.1499999999999998e-01 1.0500309390421133e+01 8.0072965633442266e+00 3.9906467024069698e+00 -1 1 -2
87 29 1 4.1499999999999998e-01 8.4648485741753419e+00 8.0161957544285301e+00 3.5661522805931636e+00 -1 1 1
85 29 2 -8.2999999999999996e-01 8.8316808395270634e+00 8.6187757239954301e+00 2.9192575398958520e+00 -1 1 1
86 29 1 4.1499999999999998e-01 8.4032808741340155e+00 9.4369292979755208e+00 3.1707218683916443e+00 -1 1 1
292 98 2 -8.2999999999999996e-01 1.2384757197015396e+01 7.8511190724747530e+00 1.4359417551653186e+00 2 0 1
205 69 2 -8.2999999999999996e-01 3.1842805044428597e+00 1.4952905864852831e+01 1.5813888299854013e+00 -1 3 0
91 31 2 -8.2999999999999996e-01 1.6498092508667650e+00 1.1806196921352882e+01 3.3036297932993302e+00 0 2 0
92 31 1 4.1499999999999998e-01 2.5855690906872559e+00 1.1755266755077116e+01 3.4983020753432932e+00 0 2 0
36 12 1 4.1499999999999998e-01 5.9526354780705393e-01 1.2090970349048220e+01 1.8800361709829663e+00 4 1 -1
34 12 2 -8.2999999999999996e-01 4.7248764994131914e-01 1.2170659187130141e+01 9.3413995230543512e-01 4 1 -1
155 52 1 4.1499999999999998e-01 3.0213835443883714e+00 1.3482876805764302e+01 8.1413870433295266e-01 0 1 2
156 52 1 4.1499999999999998e-01 2.2094569318881572e+00 1.2377541482668541e+01 5.5290311969605455e-01 0 1 2
273 91 1 4.1499999999999998e-01 6.9916745077928084e+00 1.2351926144486793e+01 1.5257109051553492e+00 -4 -2 0
178 60 2 -8.2999999999999996e-01 4.2844206785934951e+00 1.1827378543761544e+01 3.6855766421872951e+00 -1 0 3
180 60 1 4.1499999999999998e-01 4.7722990137185546e+00 1.2491206681265087e+01 3.1982963105543614e+00 -1 0 3
70 24 2 -8.2999999999999996e-01 6.0429398685820601e+00 1.3789666247817131e+01 2.2584810019534154e+00 -2 0 -1
72 24 1 4.1499999999999998e-01 5.4192010369846644e+00 1.4059158553607606e+01 1.5843453691073988e+00 -2 0 -1
271 91 2 -8.2999999999999996e-01 7.4564803444733148e+00 1.1716065421488793e+01 9.8186083845254535e-01 -4 -2 0
71 24 1 4.1499999999999998e-01 6.5589078907669540e+00 1.4576902286860832e+01 2.4321803224322895e+00 -2 0 -1
171 57 1 4.1499999999999998e-01 8.8280232384647022e+00 1.4769076053556816e+01 3.9896438400220360e+00 0 3 0
272 91 1 4.1499999999999998e-01 8.3274699823950922e+00 1.2084866179903621e+01 1.1284809950968979e+00 -4 -2 0
57 19 1 4.1499999999999998e-01 1.0364025474932546e+01 1.1825806300257796e+01 2.3581464445516414e+00 -2 3 -2
56 19 1 4.1499999999999998e-01 1.0257962312975380e+01 1.3139898175414082e+01 3.0502816100639705e+00 -2 3 -2
55 19 2 -8.2999999999999996e-01 1.0253133588390828e+01 1.2758216174261513e+01 2.1725384444602804e+00 -2 3 -2
35 12 1 4.1499999999999998e-01 1.4476968534980994e+01 1.2731095358949588e+01 9.3322133283806519e-01 3 1 -1
109 37 2 -8.2999999999999996e-01 1.2410767045096435e+01 1.2356911816950934e+01 3.8648269631033277e-01 -2 2 -1
111 37 1 4.1499999999999998e-01 1.1798520512069146e+01 1.2551302771105206e+01 1.0960616476355174e+00 -2 2 -1
105 35 1 4.1499999999999998e-01 1.1490924584021805e+01 1.4928726384457278e+01 6.2217787260323298e-01 2 3 -1
106 36 2 -8.2999999999999996e-01 2.9387285877088711e+00 2.7876781008794262e+00 6.8853944508373566e+00 1 0 1
107 36 1 4.1499999999999998e-01 2.9051130374662408e+00 2.1118117461761914e+00 6.2084818249589748e+00 1 0 1
108 36 1 4.1499999999999998e-01 2.1639162883317016e+00 2.5878254326417349e+00 7.4106190788374997e+00 1 0 1
46 16 2 -8.2999999999999996e-01 2.8853904764684342e+00 1.3985919234381741e+00 4.4764527474307991e+00 -2 0 -2
47 16 1 4.1499999999999998e-01 3.1127893696754132e+00 6.2351863271493713e-01 4.9899646443615913e+00 -2 0 -2
204 68 1 4.1499999999999998e-01 5.1639481938633824e-01 4.2381434686133801e-01 4.0779591679949068e+00 1 0 1
199 67 2 -8.2999999999999996e-01 5.2971925166366918e-01 1.8980006714844786e+00 7.4761381397452578e+00 -1 2 -3
9 3 1 4.1499999999999998e-01 7.0985931686802131e+00 2.0331411066669571e+00 6.3951847741344894e+00 2 -1 1
7 3 2 -8.2999999999999996e-01 7.6152147969469013e+00 1.2273892840924399e+00 6.3961642028465953e+00 2 -1 1
219 73 1 4.1499999999999998e-01 5.0910512334170370e+00 3.0743614238154118e+00 6.7163727942222282e+00 0 4 -3
217 73 2 -8.2999999999999996e-01 5.8131084962234167e+00 3.3646143208387240e+00 6.1591278850094042e+00 0 4 -3
218 73 1 4.1499999999999998e-01 6.2338683771100154e+00 4.0444979036108162e+00 6.6853043903110727e+00 0 4 -3
172 58 2 -8.2999999999999996e-01 1.0176306905849003e+01 2.5964933456396784e+00 5.4089104091074480e+00 1 2 0
174 58 1 4.1499999999999998e-01 1.0661499323425172e+01 2.2303412983481326e+00 4.6695487382023453e+00 1 2 0
8 3 1 4.1499999999999998e-01 7.9410997166755948e+00 1.2522222320679721e+00 5.4965435611976661e+00 2 -1 1
173 58 1 4.1499999999999998e-01 9.7165218072374415e+00 3.3361797782995311e+00 5.0119258240241118e+00 1 2 0
26 9 1 4.1499999999999998e-01 1.0752056399228326e+01 1.3844581484202281e+00 6.4238983973581352e+00 2 -1 0
25 9 2 -8.2999999999999996e-01 1.0816441555889305e+01 6.6110174792938647e-01 7.0473954728824593e+00 2 -1 0
27 9 1 4.1499999999999998e-01 1.0165025441743882e+01 9.9083099016742493e-01 7.6663225569169464e+00 2 -1 0
190 64 2 -8.2999999999999996e-01 1.1900859307927330e+01 9.8357865144803358e-01 4.1741941183323057e+00 -1 1 0
191 64 1 4.1499999999999998e-01 1.2842014816125094e+01 8.2068538236869415e-01 4.2360895904295921e+00 -1 1 0
202 68 2 -8.2999999999999996e-01 1.4512030660123379e+01 5.0618850273687177e-01 4.6197149161851980e+00 0 0 1
38 13 1 4.1499999999999998e-01 1.2777309794652094e+01 2.9348899979481740e+00 6.3868883795957814e+00 -1 2 -2
200 67 1 4.1499999999999998e-01 1.4733597702962399e+01 2.6098616893909177e+00 7.1986214187325421e+00 -2 2 -3
37 13 2 -8.2999999999999996e-01 1.2917234331324455e+01 3.7369751945378797e+00 6.8900934928926700e+00 -1 2 -2
228 76 1 4.1499999999999998e-01 1.6588181934928108e+00 4.2252016709449025e+00 4.5368065657125838e+00 -1 3 3
150 50 1 4.1499999999999998e-01 3.6731609200087272e+00 6.1144786403195051e+00 4.7931082328137107e+00 1 4 3
127 43 2 -8.2999999999999996e-01 2.3996450326628986e+00 5.2004683142798553e+00 5.7682606024668912e+00 -2 -1 2
129 43 1 4.1499999999999998e-01 2.6521872761221550e+00 4.4538252825754263e+00 6.3112934482011775e+00 -2 -1 2
128 43 1 4.1499999999999998e-01 1.7278759310802574e+00 5.6617777861240697e+00 6.2703149875191286e+00 -2 -1 2
67 23 2 -8.2999999999999996e-01 1.2062242855948631e+00 6.3311843679228303e+00 7.6503757609325298e+00 1 -4 3
167 56 1 4.1499999999999998e-01 6.1383368300436558e-01 7.4886844850445566e+00 5.2535162503554940e+00 -1 2 2
148 50 2 -8.2999999999999996e-01 4.3389473782203840e+00 6.8020497550298895e+00 4.7825745290801720e+00 1 4 3
149 50 1 4.1499999999999998e-01 4.2449740268347753e+00 7.1478201241438075e+00 5.6701267394415842e+00 1 4 3
165 55 1 4.1499999999999998e-01 6.0402730100199387e+00 4.0637967467687979e+00 4.1563371295322202e+00 3 -1 -1
164 55 1 4.1499999999999998e-01 5.1222470853182394e+00 5.1139595282107431e+00 4.4005408089442648e+00 3 -1 -1
242 81 1 4.1499999999999998e-01 6.8635464716966323e+00 6.7927487882291331e+00 4.3292729330439119e+00 3 0 0
241 81 2 -8.2999999999999996e-01 7.7348030850922962e+00 7.0733939051052044e+00 4.6090681350000144e+00 3 0 0
243 81 1 4.1499999999999998e-01 7.5599600645623886e+00 7.1721893367170768e+00 5.5449130846876313e+00 3 0 0
100 34 2 -8.2999999999999996e-01 7.5769021967721164e+00 7.6420786792080841e+00 7.3919336720112199e+00 -4 -1 3
237 79 1 4.1499999999999998e-01 1.0286025473365463e+01 5.7556427823640943e+00 4.6430525627969601e+00 1 1 -2
235 79 2 -8.2999999999999996e-01 9.5338106965841796e+00 5.2210148324185601e+00 4.3891219889324784e+00 1 1 -2
236 79 1 4.1499999999999998e-01 8.8629326186558508e+00 5.9034852031331697e+00 4.3719967603362546e+00 1 1 -2
102 34 1 4.1499999999999998e-01 8.4565963669181841e+00 7.4394423117760367e+00 7.7100709737195032e+00 -4 -1 3
211 71 2 -8.2999999999999996e-01 1.3006767358696102e+01 5.3298803524417737e+00 4.6440442678711102e+00 -1 0 -1
213 71 1 4.1499999999999998e-01 1.2433960503517405e+01 6.0694684313410203e+00 4.8466195707607369e+00 -1 0 -1
39 13 1 4.1499999999999998e-01 1.2894190363807311e+01 4.3724778149758974e+00 6.1747313208646064e+00 -1 2 -2
120 40 1 4.1499999999999998e-01 1.4517620111007741e+00 1.0727504783249589e+01 6.4382688297985666e+00 -1 0 0
118 40 2 -8.2999999999999996e-01 8.0383835721604058e-01 1.0718033202635745e+01 5.7338242785504967e+00 -1 0 0
23 8 1 4.1499999999999998e-01 3.4511965469028798e+00 8.8795885248246726e+00 7.0142004738521440e+00 0 -2 -2
119 40 1 4.1499999999999998e-01 6.2168136283091213e-01 9.7834316841326689e+00 5.6364608198553494e+00 -1 0 0
166 56 2 -8.2999999999999996e-01 4.7248392430157848e-01 8.1824590987681809e+00 5.8975907827452545e+00 -1 2 2
168 56 1 4.1499999999999998e-01 7.9232108075520424e-01 7.7633880301818836e+00 6.6964773659971302e+00 -1 2 2
63 21 1 4.1499999999999998e-01 4.8605977262441513e+00 9.1538984470743223e+00 4.1639576588806158e+00 3 0 0
160 54 2 -8.2999999999999996e-01 5.2153985675895376e+00 1.1014545850576642e+01 6.4848427482803030e+00 1 2 2
24 8 1 4.1499999999999998e-01 4.7944776907893045e+00 9.3085209775711917e+00 6.6382038929070335e+00 0 -2 -2
22 8 2 -8.2999999999999996e-01 4.3318214688386840e+00 8.5178109715901975e+00 6.9154499563974383e+00 0 -2 -2
282 94 1 4.1499999999999998e-01 6.8781847588695006e+00 1.0451455050592248e+01 4.3454749316256294e+00 -1 0 1
97 33 2 -8.2999999999999996e-01 1.1353197116437027e+01 7.7667628619496192e+00 4.3523938891702727e+00 -1 1 -2
280 94 2 -8.2999999999999996e-01 7.7548344464712287e+00 1.0784575186336525e+01 4.5369203690741529e+00 -1 0 1
58 20 2 -8.2999999999999996e-01 8.7159234398296626e+00 1.0288309358177553e+01 6.8457365813796471e+00 -1 -3 2
59 20 1 4.1499999999999998e-01 8.2969058766930601e+00 1.0960312623947932e+01 7.3833039912501670e+00 -1 -3 2
60 20 1 4.1499999999999998e-01 8.2811435304138428e+00 1.0418270775750422e+01 6.0029918346480988e+00 -1 -3 2
138 46 1 4.1499999999999998e-01 1.0483866561620157e+01 1.0183120642629934e+01 6.8087968934132483e+00 0 0 0
136 46 2 -8.2999999999999996e-01 1.1428003998690915e+01 1.0042472735104841e+01 6.7383589918402498e+00 0 0 0
101 34 1 4.1499999999999998e-01 7.8611751251880522e+00 8.5109451900903395e+00 7.1083916372859699e+00 -4 -1 3
98 33 1 4.1499999999999998e-01 1.1707793300206376e+01 8.6048312312682214e+00 4.6491055220700712e+00 -1 1 -2
137 46 1 4.1499999999999998e-01 1.1812534436613952e+01 1.0783772830732342e+01 6.2706571017780730e+00 0 0 0
182 61 1 4.1499999999999998e-01 1.2218934700298178e+01 8.7005247807874930e+00 7.3398254260738138e+00 -3 0 0
183 61 1 4.1499999999999998e-01 1.3591447441690061e+01 8.1888080899630751e+00 7.3878980053304693e+00 -3 0 0
93 31 1 4.1499999999999998e-01 1.2237137445171542e+00 1.1503463826596992e+01 4.1054594310097468e+00 0 2 0
308 103 1 4.1499999999999998e-01 2.3698080711996590e+00 1.3956271657261162e+01 6.5161294447487172e+00 2 1 -1
309 103 1 4.1499999999999998e-01 3.7550228166607629e+00 1.4121750442715200e+01 7.0018918757481252e+00 2 1 -1
266 89 1 4.1499999999999998e-01 5.4091557184993433e-01 1.2454558085925374e+01 6.2461553630607183e+00 1 -2 2
307 103 2 -8.2999999999999996e-01 3.1851856483499312e+00 1.4401349358932052e+01 6.2854777547947833e+00 2 1 -1
162 54 1 4.1499999999999998e-01 5.7434503556481582e+00 1.1696715591737394e+01 6.0701842136024737e+00 1 2 2
161 54 1 4.1499999999999998e-01 4.7200175891183571e+00 1.1614449639232326e+01 7.0423794674425384e+00 1 2 2
281 94 1 4.1499999999999998e-01 7.5839978224301143e+00 1.1715064278271516e+01 4.6823328051180466e+00 -1 0 1
20 7 1 4.1499999999999998e-01 6.8789230804619983e+00 1.3837354778353749e+01 4.8540642724285794e+00 2 0 2
21 7 1 4.1499999999999998e-01 5.5770474899505249e+00 1.3193349943288940e+01 4.9018688547718963e+00 2 0 2
19 7 2 -8.2999999999999996e-01 6.4903033701586192e+00 1.3002720963317337e+01 5.1157828494984035e+00 2 0 2
41 14 1 4.1499999999999998e-01 1.1043250685818002e+01 1.4268565286649423e+01 4.7232467339837658e+00 1 2 -2
42 14 1 4.1499999999999998e-01 1.0413234950732555e+01 1.3491537629247397e+01 5.6296678870245804e+00 1 2 -2
40 14 2 -8.2999999999999996e-01 1.0348704285821356e+01 1.3611252535814423e+01 4.6822296950551072e+00 1 2 -2
216 72 1 4.1499999999999998e-01 1.1947233092562641e+01 1.4029850454473930e+01 7.2071122106167884e+00 1 -3 1
214 72 2 -8.2999999999999996e-01 1.2449964494332043e+01 1.3218522264887476e+01 7.2788392610405737e+00 1 -3 1
203 68 1 4.1499999999999998e-01 1.4634206167457751e+01 1.4685267923576399e+01 5.3543080033508605e+00 0 -1 1
265 89 2 -8.2999999999999996e-01 1.5118036424907132e+01 1.3341089904220155e+01 6.5442759626225788e+00 0 -2 2
267 89 1 4.1499999999999998e-01 1.4245232721341559e+01 1.3233594335397445e+01 6.9221574654756131e+00 0 -2 2
116 39 1 4.1499999999999998e-01 2.3991094180141941e+00 6.3180797240052655e-01 9.1736606209674463e+00 3 -1 -1
122 41 1 4.1499999999999998e-01 7.7813416394167900e-01 3.5150742121911516e+00 1.1139044629271162e+01 -2 1 0
278 93 1 4.1499999999999998e-01 7.1302021765947616e+00 4.0787348983427268e-01 8.0573298469925643e+00 -2 -3 -1
142 48 2 -8.2999999999999996e-01 5.9206135633762811e+00 1.8489317457840331e+00 1.0780028634883497e+01 4 1 1
158 53 1 4.1499999999999998e-01 5.4893891679052462e+00 3.6350950444693901e+00 1.0705047225849402e+01 -1 -1 4
143 48 1 4.1499999999999998e-01 5.5109120277777963e+00 1.1006890357353196e+00 1.1214097709344674e+01 4 1 1
144 48 1 4.1499999999999998e-01 6.2721578778714910e+00 1.4222011217287618e+00 9.9987134524310939e+00 4 1 1
279 93 1 4.1499999999999998e-01 7.8185874904129449e+00 6.9849106134146766e-01 9.3329152324455578e+00 -2 -3 -1
11 4 1 4.1499999999999998e-01 9.8318996049883012e+00 1.6116064759626705e+00 9.9900702096373131e+00 -2 -1 -2
10 4 2 -8.2999999999999996e-01 9.1289253898062483e+00 1.5911678356764376e+00 9.3408049692245179e+00 -2 -1 -2
12 4 1 4.1499999999999998e-01 8.9809141654139850e+00 2.5226803816489967e+00 9.1779838547795727e+00 -2 -1 -2
201 67 1 4.1499999999999998e-01 1.4818575236999013e+01 1.7223479087903928e+00 8.2784284137230824e+00 -2 2 -3
258 86 1 4.1499999999999998e-01 1.4976432048782790e+01 1.2374705105916699e+00 1.0583559290506166e+01 -4 1 1
257 86 1 4.1499999999999998e-01 1.3668868824026500e+01 2.0400276269749273e+00 1.0529034108744820e+01 -4 1 1
256 86 2 -8.2999999999999996e-01 1.4505464684849393e+01 1.9045226891010087e+00 1.0084193572845976e+01 -4 1 1
317 106 1 4.1499999999999998e-01 1.1542637084215716e+01 3.7125726359225570e+00 9.7538103674746850e+00 -1 0 -1
320 108 4 -1.0000000000000000e+00 1.1737410355800570e+01 2.0717751998235503e+00 1.1432874317769418e+01 -1 -1 0
68 23 1 4.1499999999999998e-01 5.6171012799958997e-01 6.3858875067256209e+00 8.3558868750761732e+00 1 -4 3
69 23 1 4.1499999999999998e-01 1.9496146160702017e+00 6.0220152686527983e+00 8.1679872037125705e+00 1 -4 3
80 27 1 4.1499999999999998e-01 2.3564858064502623e+00 6.7193507435431883e+00 1.0673684182256736e+01 -1 -1 0
244 82 2 -8.2999999999999996e-01 3.5145444086544062e+00 6.1949570000956227e+00 9.4173879232866788e+00 0 0 2
121 41 2 -8.2999999999999996e-01 8.1336577879877403e-01 4.4241035768156420e+00 1.1436633890050700e+01 -2 1 0
79 27 2 -8.2999999999999996e-01 1.7983572629423439e+00 7.2873755041420232e+00 1.1204699828047715e+01 -1 -1 0
157 53 2 -8.2999999999999996e-01 5.5991623965688015e+00 4.5857672910729095e+00 1.0722603612008381e+01 -1 -1 4
245 82 1 4.1499999999999998e-01 4.1317514355595897e+00 5.5168921125135464e+00 9.6920142360541952e+00 0 0 2
246 82 1 4.1499999999999998e-01 4.0649882923229743e+00 6.9676569912435884e+00 9.2905692902781212e+00 0 0 2
145 49 2 -8.2999999999999996e-01 6.8757825407890829e+00 4.9526966170010329e+00 7.9219260619818348e+00 1 1 1
147 49 1 4.1499999999999998e-01 7.1254627321366630e+00 4.8476241535718714e+00 8.8399426737305049e+00 1 1 1
146 49 1 4.1499999999999998e-01 7.0820132172732722e+00 5.8811056214033188e+00 7.8139414087893453e+00 1 1 1
312 104 1 4.1499999999999998e-01 6.8698134494307581e+00 6.1764920744229235e+00 1.1333036788405753e+01 -1 3 -2
310 104 2 -8.2999999999999996e-01 7.4813829837262462e+00 6.6471555819818882e+00 1.0766827330707226e+01 -1 3 -2
311 104 1 4.1499999999999998e-01 7.8430446555239275e+00 7.2318004666549758e+00 1.1432804735367572e+01 -1 3 -2
249 83 1 4.1499999999999998e-01 1.0244023797492154e+01 6.0147503685387234e+00 8.9222009373797455e+00 0 -3 1
248 83 1 4.1499999999999998e-01 9.3133328336287775e+00 6.6641530859600078e+00 9.9013444871438487e+00 0 -3 1
247 83 2 -8.2999999999999996e-01 9.9196059544290875e+00 6.8741613403467063e+00 9.1910876565715434e+00 0 -3 1
318 106 1 4.1499999999999998e-01 1.2068817677472335e+01 4.3760373467858065e+00 8.4840571086448193e+00 -1 0 -1
316 106 2 -8.2999999999999996e-01 1.1711149750518793e+01 4.5646139983244431e+00 9.3516106370427643e+00 -1 0 -1
31 11 2 -8.2999999999999996e-01 1.3951558598880013e+01 6.1943434384198408e+00 9.5530330260480660e+00 -4 -3 -2
32 11 1 4.1499999999999998e-01 1.3221008541973248e+01 5.6019267634659249e+00 9.3756209427063482e+00 -4 -3 -2
33 11 1 4.1499999999999998e-01 1.3551790671888156e+01 7.0532466121903115e+00 9.4166279626948679e+00 -4 -3 -2
123 41 1 4.1499999999999998e-01 1.5042912285886146e+01 4.8617797608271971e+00 1.0787681824541330e+01 -3 1 0
232 78 2 -8.2999999999999996e-01 1.1779290805640046e+00 1.0067120063947787e+01 1.0841530062075215e+01 0 -1 -1
296 99 1 4.1499999999999998e-01 3.9344367060144863e+00 1.0955566658002621e+01 1.0257453402577084e+01 2 -2 1
141 47 1 4.1499999999999998e-01 2.5835752515070505e+00 1.1235904491725854e+01 8.5286756681711609e+00 1 0 2
139 47 2 -8.2999999999999996e-01 2.3459180374665460e+00 1.0533678962087262e+01 7.9232536564551017e+00 1 0 2
140 47 1 4.1499999999999998e-01 1.7986717922086657e+00 1.0034955039359303e+01 8.5298267407754516e+00 1 0 2
234 78 1 4.1499999999999998e-01 1.2403214523945976e+00 9.1162821276523616e+00 1.0931809271388740e+01 0 -1 -1
274 92 2 -8.2999999999999996e-01 5.6190661187945210e+00 8.0017352560722426e+00 9.3099040231462915e+00 -1 2 -2
275 92 1 4.1499999999999998e-01 6.5118506792393784e+00 7.8699121360956115e+00 9.6287967757041564e+00 -1 2 -2
276 92 1 4.1499999999999998e-01 5.8282763327350082e+00 8.0115919492477126e+00 8.3759504881972795e+00 -1 2 -2
302 101 1 4.1499999999999998e-01 6.2311693871287606e+00 1.0690594512975231e+01 1.1291109950630915e+01 0 0 1
295 99 2 -8.2999999999999996e-01 4.5564326799882018e+00 1.0328258905239565e+01 1.0625885569847870e+01 2 -2 1
297 99 1 4.1499999999999998e-01 4.7234614926577247e+00 9.6344035039097626e+00 9.9880759575848010e+00 2 -2 1
29 10 1 4.1499999999999998e-01 8.7736968394508494e+00 1.0591272568743140e+01 1.0642761475445756e+01 -3 -2 1
28 10 2 -8.2999999999999996e-01 9.0312223387010704e+00 9.6700223974374140e+00 1.0609406672759860e+01 -3 -2 1
30 10 1 4.1499999999999998e-01 8.4769974301580966e+00 9.3482504405390792e+00 1.1320344690857372e+01 -3 -2 1
319 107 3 1.0000000000000000e+00 1.1024660039596945e+01 9.1743351496532064e+00 9.5079391707476688e+00 -1 -1 1
181 61 2 -8.2999999999999996e-01 1.2796319622138824e+01 8.2049415662253296e+00 7.9204825093456339e+00 -3 0 0
209 70 1 4.1499999999999998e-01 1.2594190615293119e+01 1.1403340851123296e+01 1.0409597555296660e+01 0 0 -1
229 77 2 -8.2999999999999996e-01 1.2624211495691618e+01 8.2758274096955802e+00 1.1285988030892288e+01 2 1 1
208 70 2 -8.2999999999999996e-01 1.1716743708264232e+01 1.1277500555455642e+01 1.0048508035738621e+01 0 0 -1
117 39 1 4.1499999999999998e-01 1.3426756158436908e+00 1.4775127677255931e+01 8.2165379153437037e+00 3 -2 -1
115 39 2 -8.2999999999999996e-01 2.0393762410520124e+00 1.4588112150406026e+01 8.8456386723789358e+00 3 -2 -1
53 18 1 4.1499999999999998e-01 2.4722131864174943e+00 1.3125913153256214e+01 9.9505342738964160e+00 0 -1 -1
52 18 2 -8.2999999999999996e-01 2.7647738405882887e+00 1.2214570551780749e+01 9.9511854519455092e+00 0 -1 -1
54 18 1 4.1499999999999998e-01 2.1993080760768038e+00 1.1861027873032743e+01 1.0637764728111833e+01 0 -1 -1
277 93 2 -8.2999999999999996e-01 7.0820620661131990e+00 1.4973617620342658e+01 8.9888579450018753e+00 -2 -4 -1
50 17 1 4.1499999999999998e-01 4.3284800455324568e+00 1.3440763093126968e+01 9.0143465157735108e+00 2 -2 -2
49 17 2 -8.2999999999999996e-01 4.7943381060111951e+00 1.3562134240777837e+01 8.1870737914850160e+00 2 -2 -2
130 44 2 -8.2999999999999996e-01 4.2894369032733994e+00 1.4644734663855854e+01 1.1243514566059901e+01 1 2 -3
51 17 1 4.1499999999999998e-01 5.6105643108349055e+00 1.3897036309381093e+01 8.5582213869510113e+00 2 -2 -2
17 6 1 4.1499999999999998e-01 6.8573899720890035e+00 1.1647884958338405e+01 9.0583242737950371e+00 2 0 -1
16 6 2 -8.2999999999999996e-01 7.5223320525015955e+00 1.1975095862505267e+01 8.4525851296023724e+00 2 0 -1
18 6 1 4.1499999999999998e-01 7.4736311595143547e+00 1.2927259020826401e+01 8.5371343659511716e+00 2 0 -1
215 72 1 4.1499999999999998e-01 1.2551916965905139e+01 1.3228585272050626e+01 8.2304899388295727e+00 1 -3 1
239 80 1 4.1499999999999998e-01 1.2899527067145769e+01 1.4030142332968364e+01 1.0365828321812913e+01 -1 -4 0
238 80 2 -8.2999999999999996e-01 1.2071609455625946e+01 1.3926635399688543e+01 9.8968148003623568e+00 -1 -4 0
240 80 1 4.1499999999999998e-01 1.1673360662291966e+01 1.4786751001697702e+01 1.0029984436283026e+01 -1 -4 0
1 1 2 -8.2999999999999996e-01 1.5134516478163885e+01 1.3700889721623195e+01 1.1261106572485204e+01 0 -2 -3
210 70 1 4.1499999999999998e-01 1.1469613371104547e+01 1.2201488419896602e+01 1.0012320584434164e+01 0 0 -1
220 74 2 -8.2999999999999996e-01 3.1497484306497880e+00 2.3748025754676862e+00 1.3927271053326141e+01 0 2 -2
222 74 1 4.1499999999999998e-01 3.7613856115591884e+00 3.1074167983038135e+00 1.3854397072612336e+01 0 2 -2
221 74 1 4.1499999999999998e-01 2.6056760252265474e+00 2.6671495676023960e+00 1.4658471099099774e+01 0 2 -2
269 90 1 4.1499999999999998e-01 2.6443665936244471e+00 8.6414579507897193e-01 1.3427672168337075e+01 -1 2 -1
186 62 1 4.1499999999999998e-01 6.7299382043366203e+00 1.9291458105702586e+00 1.2358188908163996e+01 -2 -3 -1
184 62 2 -8.2999999999999996e-01 7.2516311762326007e+00 1.6297651722669084e+00 1.3102732300197545e+01 -2 -3 -1
261 87 1 4.1499999999999998e-01 6.7967931166856888e+00 4.5705120605801142e-01 1.3905735303623441e+01 1 1 0
6 2 1 4.1499999999999998e-01 6.7422053256066974e+00 2.1709864314805509e+00 1.4438390067511126e+01 -1 4 -2
185 62 1 4.1499999999999998e-01 7.9809838812336356e+00 2.2466574470354281e+00 1.3042537752670693e+01 -2 -3 -1
64 22 2 -8.2999999999999996e-01 9.6301688429528660e+00 3.4476633124499854e+00 1.3702945792370201e+01 1 -2 -2
66 22 1 4.1499999999999998e-01 1.0326816640722082e+01 3.5036226151909422e+00 1.4356922108174516e+01 1 -2 -2
65 22 1 4.1499999999999998e-01 9.9139711470659968e+00 2.9360297163028806e+00 1.2945435109776092e+01 1 -2 -2
253 85 2 -8.2999999999999996e-01 1.3184405364453852e+01 2.3586450349962336e+00 1.4312352882415990e+01 -1 1 1
254 85 1 4.1499999999999998e-01 1.2663156234679608e+01 2.3895799912780946e+00 1.3510181676195952e+01 -1 1 1
255 85 1 4.1499999999999998e-01 1.3681831799489530e+01 3.1763382835064005e+00 1.4321355202224606e+01 -1 1 1
81 27 1 4.1499999999999998e-01 1.1238617197116354e+00 6.6825827726893214e+00 1.1513595453475915e+01 -1 -1 0
263 88 1 4.1499999999999998e-01 5.4589598129232186e-01 4.7738637247296101e+00 1.3328579106549423e+01 -1 -2 -1
264 88 1 4.1499999999999998e-01 5.3050457740241863e-01 4.7207037393622215e+00 1.4739272496963988e+01 -1 -2 -1
78 26 1 4.1499999999999998e-01 6.4939827286352019e+00 4.5089755507510452e+00 1.4129470714191690e+01 1 2 -1
159 53 1 4.1499999999999998e-01 6.1150213281079129e+00 4.6674131220122543e+00 1.1524700242267066e+01 -1 -1 4
76 26 2 -8.2999999999999996e-01 6.6526795085135788e+00 4.9232844700578218e+00 1.3281355946492685e+01 1 2 -1
77 26 1 4.1499999999999998e-01 6.9446869331956309e+00 5.7227222641853901e+00 1.3719266467469005e+01 1 2 -1
82 28 2 -8.2999999999999996e-01 1.2783432815988778e+01 5.6393235523192686e+00 1.2392523742555831e+01 1 -1 0