LAMMPS (3 Mar 2020)

# Define temperature parameters
variable	temperature equal 300.0 			# Simulation temperature in Kelvin
variable	tempDamp equal 100.0 				# Relaxation time of themostat - 0.1 ps

# Define pressure parameters
variable	pressure equal 1.0 					# Pressure in bars
variable	pressureDamp equal 500.0 			# Relaxation time of the barostat 0.5 ps

# Define random seed
variable	seed equal 15674

# Simulation setup
units	real
atom_style full
variable	out_freq equal 100 					# Thermo output frequency
variable	out_freq2 equal 100 					# Dump output frequency
neigh_modify delay 10 every 1 				# Neighbor list setup
include in.nacl 									# Load initial configuration
### TIP4P/Ew and NaCl Potential Parameters ###
pair_style 	hybrid lj/cut/coul/long 5.0 buck/coul/long 5.0 # This cutoff is too short for a real calculation
# Load configuration
read_data       data.nacl
Reading data file ...
  orthogonal box = (0 0 0) to (15.5 15.5 15.5)
  1 by 1 by 1 MPI processor grid
  reading atoms ...
  320 atoms
  scanning bonds ...
  2 = max bonds/atom
  scanning angles ...
  1 = max angles/atom
  reading bonds ...
  212 bonds
  reading angles ...
  106 angles
Finding 1-2 1-3 1-4 neighbors ...
  special bond factors lj:   0          0          0         
  special bond factors coul: 0          0          0         
  2 = max # of 1-2 neighbors
  1 = max # of 1-3 neighbors
  1 = max # of 1-4 neighbors
  2 = max # of special neighbors
  special bonds CPU = 0.000225067 secs
  read_data CPU = 0.00546288 secs

### create groups ###

group hy type 1
212 atoms in group hy
group ox type 2
106 atoms in group ox
group na type 3
1 atoms in group na
group cl type 4
1 atoms in group cl

### set charges - beside manually ###
set group ox charge -0.830
Setting atom values ...
  106 settings made for charge
set group hy charge 0.415
Setting atom values ...
  212 settings made for charge
set group na charge 1.0
Setting atom values ...
  1 settings made for charge
set group cl charge -1.0
Setting atom values ...
  1 settings made for charge

# Water TIP3P
pair_coeff      1 1 lj/cut/coul/long 0.0 0.0
pair_coeff      2 2 lj/cut/coul/long 0.102 3.188
pair_coeff      1 2 lj/cut/coul/long 0.0 0.0
# Mixed from Pettitt 86
pair_coeff      2 3 lj/cut/coul/long 0.1338549 2.72
pair_coeff      1 3 lj/cut/coul/long 0.1338549 1.31
pair_coeff      2 4 lj/cut/coul/long 0.359825 3.55
pair_coeff      1 4 lj/cut/coul/long 0.359825 2.14
# NaCl from Pettitt 86
pair_coeff	3 4 buck/coul/long 28929.93 0.317 161.2016
pair_coeff	3 3 buck/coul/long 9772.847 0.317 24.18024 # This is not used
pair_coeff	4 4 buck/coul/long 80312.94 0.317 1683.981 # This is not used
bond_style      harmonic
bond_coeff      1 450 0.9572
angle_style     harmonic
angle_coeff     1 55 104.52
kspace_style    pppm 1e-2 # This value is too large for a real calculation
timestep	2.0 										# Timestep 2 fs
thermo ${out_freq}
thermo 100
thermo_style custom step temp pe ke etotal press lx ly lz xy xz yz
restart ${out_freq} restart restart2
restart 100 restart restart2

# Perform minimization
minimize 1.0e-2 1.0e-3 100 1000
WARNING: Using 'neigh_modify every 1 delay 0 check yes' setting during minimization (src/min.cpp:190)
PPPM initialization ...
  using 12-bit tables for long-range coulomb (src/kspace.cpp:332)
  G vector (1/distance) = 0.400236
  grid = 8 8 8
  stencil order = 5
  estimated absolute RMS force accuracy = 0.782336
  estimated relative force accuracy = 0.00235598
  using double precision KISS FFT
  3d grid and FFT values/proc = 3375 512
Neighbor list info ...
  update every 1 steps, delay 0 steps, check yes
  max neighbors/atom: 2000, page size: 100000
  master list distance cutoff = 7
  ghost atom cutoff = 7
  binsize = 3.5, bins = 5 5 5
  3 neighbor lists, perpetual/occasional/extra = 3 0 0
  (1) pair lj/cut/coul/long, perpetual, skip from (3)
      attributes: half, newton on
      pair build: skip
      stencil: none
      bin: none
  (2) pair buck/coul/long, perpetual, skip from (3)
      attributes: half, newton on
      pair build: skip
      stencil: none
      bin: none
  (3) neighbor class addition, perpetual
      attributes: half, newton on
      pair build: half/bin/newton
      stencil: half/bin/3d/newton
      bin: standard
Setting up cg style minimization ...
  Unit style    : real
  Current step  : 0
Per MPI rank memory allocation (min/avg/max) = 9.634 | 9.634 | 9.634 Mbytes
Step Temp PotEng KinEng TotEng Press Lx Ly Lz Xy Xz Yz 
       0            0    56622.859            0    56622.859    4161545.2         15.5         15.5         15.5            0            0            0 
      24            0   -1029.4768            0   -1029.4768   -3681.7293         15.5         15.5         15.5            0            0            0 
Loop time of 0.0369101 on 1 procs for 24 steps with 320 atoms

97.3% CPU use with 1 MPI tasks x no OpenMP threads

Minimization stats:
  Stopping criterion = energy tolerance
  Energy initial, next-to-last, final = 
         56622.8589421     -1021.14497855     -1029.47676686
  Force two-norm initial, final = 610444 81.1302
  Force max component initial, final = 373098 22.0559
  Final line search alpha, max atom move = 0.0014802 0.0326472
  Iterations, force evaluations = 24 27

MPI task timing breakdown:
Section |  min time  |  avg time  |  max time  |%varavg| %total
---------------------------------------------------------------
Pair    | 0.019093   | 0.019093   | 0.019093   |   0.0 | 51.73
Bond    | 0.00060964 | 0.00060964 | 0.00060964 |   0.0 |  1.65
Kspace  | 0.011166   | 0.011166   | 0.011166   |   0.0 | 30.25
Neigh   | 0.0045671  | 0.0045671  | 0.0045671  |   0.0 | 12.37
Comm    | 0.00060916 | 0.00060916 | 0.00060916 |   0.0 |  1.65
Output  | 0          | 0          | 0          |   0.0 |  0.00
Modify  | 0          | 0          | 0          |   0.0 |  0.00
Other   |            | 0.000865   |            |       |  2.34

Nlocal:    320 ave 320 max 320 min
Histogram: 1 0 0 0 0 0 0 0 0 0
Nghost:    1846 ave 1846 max 1846 min
Histogram: 1 0 0 0 0 0 0 0 0 0
Neighs:    19695 ave 19695 max 19695 min
Histogram: 1 0 0 0 0 0 0 0 0 0

Total # of neighbors = 19695
Ave neighs/atom = 61.5469
Ave special neighs/atom = 1.9875
Neighbor list builds = 3
Dangerous builds = 0

# Write trajectory to file
dump           	myDump all dcd ${out_freq2} out.dcd
dump           	myDump all dcd 100 out.dcd
dump_modify    	myDump unwrap yes

# Start simulation
reset_timestep 	0

fix             1 all temp/csvr ${temperature} ${temperature} ${tempDamp} ${seed} # Bussi's thermostat
fix             1 all temp/csvr 300 ${temperature} ${tempDamp} ${seed} 
fix             1 all temp/csvr 300 300 ${tempDamp} ${seed} 
fix             1 all temp/csvr 300 300 100 ${seed} 
fix             1 all temp/csvr 300 300 100 15674 
fix             2 all shake 0.0001 20 100000 t 1 2 # Shake algorithm
Finding SHAKE clusters ...
  0 = # of size 2 clusters
  106 = # of size 3 clusters
  0 = # of size 4 clusters
  0 = # of frozen angles
  find clusters CPU = 0.000164032 secs
fix             3 all nph iso ${pressure} ${pressure} ${pressureDamp} # Isotropic barostat
fix             3 all nph iso 1 ${pressure} ${pressureDamp} 
fix             3 all nph iso 1 1 ${pressureDamp} 
fix             3 all nph iso 1 1 500 
fix 				 4 all momentum 10000 linear 1 1 1 # Set total linear momentum to zero every 10000 steps

velocity        all create ${temperature} ${seed} dist gaussian
velocity        all create 300 ${seed} dist gaussian
velocity        all create 300 15674 dist gaussian

run             500000 # 1 ns
PPPM initialization ...
  using 12-bit tables for long-range coulomb (src/kspace.cpp:332)
  G vector (1/distance) = 0.400236
  grid = 8 8 8
  stencil order = 5
  estimated absolute RMS force accuracy = 0.782336
  estimated relative force accuracy = 0.00235598
  using double precision KISS FFT
  3d grid and FFT values/proc = 3375 512
Neighbor list info ...
  update every 1 steps, delay 10 steps, check yes
  max neighbors/atom: 2000, page size: 100000
  master list distance cutoff = 7
  ghost atom cutoff = 7
  binsize = 3.5, bins = 5 5 5
  3 neighbor lists, perpetual/occasional/extra = 3 0 0
  (1) pair lj/cut/coul/long, perpetual, skip from (3)
      attributes: half, newton on
      pair build: skip
      stencil: none
      bin: none
  (2) pair buck/coul/long, perpetual, skip from (3)
      attributes: half, newton on
      pair build: skip
      stencil: none
      bin: none
  (3) neighbor class addition, perpetual
      attributes: half, newton on
      pair build: half/bin/newton
      stencil: half/bin/3d/newton
      bin: standard
Setting up Verlet run ...
  Unit style    : real
  Current step  : 0
  Time step     : 2
SHAKE stats (type/ave/delta) on step 0
  1 0.972003 0.054945 636
Per MPI rank memory allocation (min/avg/max) = 9.406 | 9.406 | 9.406 Mbytes
Step Temp PotEng KinEng TotEng Press Lx Ly Lz Xy Xz Yz 
       0          300    -1058.173    222.07035   -836.10269    913.91707         15.5         15.5         15.5            0            0            0 
     100    321.86763   -1095.2378    238.25752   -856.98027     1659.978    15.351381    15.351381    15.351381            0            0            0 
     200     327.5324   -1118.0056    242.45078   -875.55482    -2118.396    15.640379    15.640379    15.640379            0            0            0 
     300      303.587   -1107.9572    224.72557   -883.23159    223.73795    15.583711    15.583711    15.583711            0            0            0 
     400    329.16612   -1121.8438    243.66012   -878.18364    642.66199     15.45443     15.45443     15.45443            0            0            0 
     500     350.7017   -1135.8851    259.60149   -876.28358   -1969.1597    15.470001    15.470001    15.470001            0            0            0 
     600    324.44566   -1137.6035    240.16587   -897.43763   -660.24222    15.445227    15.445227    15.445227            0            0            0 
     700    312.02075   -1149.8103    230.96852   -918.84176    1720.1635    15.306761    15.306761    15.306761            0            0            0 
     800    281.48355   -1154.1869    208.36384   -945.82305   -384.44586    15.357537    15.357537    15.357537            0            0            0 
     900    298.12215   -1203.1707     220.6803   -982.49041   -445.44626    15.234993    15.234993    15.234993            0            0            0 
    1000    268.27492   -1200.1765    198.58635   -1001.5902   -47.998327    15.097924    15.097924    15.097924            0            0            0 
    1100    276.10462   -1200.6431    204.38216   -996.26095   -729.91209    15.172199    15.172199    15.172199            0            0            0 
    1200    316.98361    -1190.138     234.6422    -955.4958    -489.5422    15.235051    15.235051    15.235051            0            0            0 
    1300    315.76593   -1179.0451    233.74084   -945.30423   -1083.4014    15.257628    15.257628    15.257628            0            0            0 
    1400    301.16526   -1171.0524    222.93291   -948.11952    1253.7873    15.084424    15.084424    15.084424            0            0            0 
    1500    284.31283   -1153.8552    210.45817   -943.39708   -2030.5317    15.432951    15.432951    15.432951            0            0            0 
    1600    309.81476   -1166.6232    229.33557   -937.28762    656.53363    15.323161    15.323161    15.323161            0            0            0 
    1700    330.47586   -1125.6321    244.62963   -881.00248   -1594.5084    15.523545    15.523545    15.523545            0            0            0 
    1800    313.91175    -1171.504     232.3683   -939.13566   -1994.2654    15.517715    15.517715    15.517715            0            0            0 
    1900    295.35429   -1171.4051    218.63144   -952.77365   -664.46623    15.353002    15.353002    15.353002            0            0            0 
    2000    283.19147   -1161.6762     209.6281   -952.04809    1411.6704    15.231682    15.231682    15.231682            0            0            0 
    2100    299.20956    -1178.637    221.48523   -957.15178   -1062.9644    15.372361    15.372361    15.372361            0            0            0 
    2200    290.35809   -1190.5449    214.93307   -975.61184    1726.0114    15.248423    15.248423    15.248423            0            0            0 
    2300    328.38082   -1214.4753    243.07881   -971.39646    1182.4358    15.314111    15.314111    15.314111            0            0            0 
    2400    289.33869   -1184.1122    214.17848   -969.93369    -473.2742    15.365554    15.365554    15.365554            0            0            0 
    2500    299.59039   -1211.1904    221.76714   -989.42322   -276.17158    15.193211    15.193211    15.193211            0            0            0 
    2600     302.8553   -1218.4206    224.18394   -994.23665    87.092999     15.26492     15.26492     15.26492            0            0            0 
    2700     315.7433   -1193.3967    233.72409   -959.67263   -1761.9765    15.361736    15.361736    15.361736            0            0            0 
    2800    282.11648   -1193.0229    208.83235   -984.19056    710.65548    15.198345    15.198345    15.198345            0            0            0 
    2900    289.49523   -1183.0134    214.29436   -968.71908    1323.4711    15.050492    15.050492    15.050492            0            0            0 
    3000    313.74268   -1170.2848    232.24315   -938.04161   -1686.6302    15.227759    15.227759    15.227759            0            0            0 
    3100    296.45719   -1181.1582    219.44783   -961.71039   -794.43341    15.388303    15.388303    15.388303            0            0            0 
    3200    291.94847   -1185.2861    216.11033   -969.17578   -40.312179    15.215088    15.215088    15.215088            0            0            0 
    3300    300.00085   -1214.8284    222.07098   -992.75745    1267.1149    14.996857    14.996857    14.996857            0            0            0 
    3400    278.70228   -1188.2325    206.30504   -981.92749    1515.8725    15.123063    15.123063    15.123063            0            0            0 
    3500     286.6264   -1198.7756    212.17075   -986.60485   -2246.8359    15.246963    15.246963    15.246963            0            0            0 
    3600    327.47859   -1218.3417    242.41095   -975.93079    1764.5036    14.924173    14.924173    14.924173            0            0            0 
    3700    298.08307   -1192.4648    220.65137   -971.81347      1243.04     14.97626     14.97626     14.97626            0            0            0 
    3800     288.2267   -1211.8365    213.35535   -998.48119    234.75184    14.928473    14.928473    14.928473            0            0            0 
    3900    309.77261   -1215.0445    229.30437   -985.74013    560.86935     14.88287     14.88287     14.88287            0            0            0 
    4000    297.45238   -1228.0856    220.18451   -1007.9011    -26.04418    14.961626    14.961626    14.961626            0            0            0 
    4100    311.44869   -1188.4662    230.54506    -957.9211   -1552.1832    15.208296    15.208296    15.208296            0            0            0 
    4200    295.97909   -1202.2368    219.09393   -983.14283   -697.30827    15.186391    15.186391    15.186391            0            0            0 
    4300    303.34158   -1214.3508     224.5439   -989.80693    835.59807    15.073835    15.073835    15.073835            0            0            0 
    4400    290.83481   -1213.7333    215.28596   -998.44732     1283.355     14.99997     14.99997     14.99997            0            0            0 
    4500    304.70441   -1219.0318    225.55272    -993.4791    2837.8238    14.903546    14.903546    14.903546            0            0            0 
    4600    292.12666   -1209.1848    216.24223    -992.9426     518.0819    15.075831    15.075831    15.075831            0            0            0 
    4700    318.18648   -1202.9675    235.53261   -967.43484   -1629.0175    15.115979    15.115979    15.115979            0            0            0 
    4800    288.81492   -1206.5464    213.79077   -992.75562    581.10638    14.924114    14.924114    14.924114            0            0            0 
    4900    295.98187    -1202.152    219.09599   -983.05601    2.0343293    14.955917    14.955917    14.955917            0            0            0 
    5000    310.09784     -1202.56    229.54512   -973.01485   -871.68153    14.986858    14.986858    14.986858            0            0            0 
    5100    306.24675   -1168.9297    226.69441   -942.23525   -539.05512    15.113402    15.113402    15.113402            0            0            0 
    5200    322.27675   -1196.6063    238.56037   -958.04594   -539.26514    15.094929    15.094929    15.094929            0            0            0 
    5300    289.33952   -1218.7636     214.1791   -1004.5845   -238.18646    15.060063    15.060063    15.060063            0            0            0 
    5400    295.75873   -1190.7606    218.93081   -971.82983   -114.01314    15.075698    15.075698    15.075698            0            0            0 
    5500    298.12286   -1187.8358    220.68082     -967.155   -103.61777    14.969342    14.969342    14.969342            0            0            0 
    5600    302.83962   -1199.6628    224.17233    -975.4905    905.45183    14.764689    14.764689    14.764689            0            0            0 
    5700    318.74341   -1187.4475    235.94486   -951.50267    295.80955    14.892595    14.892595    14.892595            0            0            0 
    5800    316.12365    -1167.779    234.00563   -933.77336   -986.57899     15.00514     15.00514     15.00514            0            0            0 
    5900    294.97023   -1179.1105    218.34714   -960.76332   -781.58124    14.949351    14.949351    14.949351            0            0            0 
    6000    296.50436   -1178.3017    219.48276   -958.81893   -181.02489    15.036277    15.036277    15.036277            0            0            0 
    6100    317.33271   -1184.0064    234.90062   -949.10581    1911.2515    14.982037    14.982037    14.982037            0            0            0 
    6200    318.38076   -1202.6001    235.67642   -966.92364   -1629.1479    15.097709    15.097709    15.097709            0            0            0 
    6300    279.93471   -1218.7862    207.21733   -1011.5689    1813.0375    15.039273    15.039273    15.039273            0            0            0 
    6400    263.73448   -1199.8551    195.22536   -1004.6298   -868.44781    15.227963    15.227963    15.227963            0            0            0 
    6500    287.65322   -1189.0147    212.93084    -976.0839    290.35566    15.060909    15.060909    15.060909            0            0            0 
    6600    290.96184   -1205.8078    215.37999   -990.42776    397.08933    15.066868    15.066868    15.066868            0            0            0 
    6700     297.5848   -1193.7312    220.28253   -973.44869   -1481.7676    15.148222    15.148222    15.148222            0            0            0 
    6800    301.01994   -1193.8882    222.82534   -971.06283   -1643.3355    15.194014    15.194014    15.194014            0            0            0 
    6900    322.73502   -1187.9662     238.8996   -949.06661    2944.0167    14.999822    14.999822    14.999822            0            0            0 
    7000    297.28333   -1178.5521    220.05938   -958.49277    2841.1243    14.921637    14.921637    14.921637            0            0            0 
    7100    285.68319   -1188.4038    211.47255   -976.93125   -1516.2358     15.18776     15.18776     15.18776            0            0            0 
    7200     309.8418    -1224.925    229.35559   -995.56943    842.46139    14.890634    14.890634    14.890634            0            0            0 
    7300    289.71479    -1193.021    214.45688   -978.56417   -2096.2702    14.928596    14.928596    14.928596            0            0            0 
    7400    323.77353    -1215.412    239.66834    -975.7437    285.52646    14.819245    14.819245    14.819245            0            0            0 
    7500    320.29278   -1198.6832    237.09177   -961.59139   -680.21494     14.94169     14.94169     14.94169            0            0            0 
    7600    307.35003   -1205.6758    227.51109   -978.16471    573.01247    14.844883    14.844883    14.844883            0            0            0 
    7700    285.31308    -1180.064    211.19858   -968.86539   -2112.5333    15.025831    15.025831    15.025831            0            0            0 
    7800     324.5539   -1199.3972      240.246   -959.15124   -486.62463    14.938592    14.938592    14.938592            0            0            0 
    7900    285.42582   -1176.0537    211.28204    -964.7717     1741.891    14.867722    14.867722    14.867722            0            0            0 
    8000    309.68406   -1212.7419    229.23883   -983.50303   -3057.8269    15.044833    15.044833    15.044833            0            0            0 
    8100    287.95734   -1220.7924    213.15596   -1007.6364    1475.4658    14.739031    14.739031    14.739031            0            0            0 
    8200    291.31658   -1212.9964    215.64258    -997.3538   -2804.5783    14.922215    14.922215    14.922215            0            0            0 
    8300    327.30013   -1208.1162    242.27884    -965.8374   -113.10034    14.814424    14.814424    14.814424            0            0            0 
    8400     322.0576   -1219.6915    238.39814    -981.2934    2074.2877    14.697183    14.697183    14.697183            0            0            0 
    8500    312.43508   -1256.3508    231.27522   -1025.0755   -262.19169    14.864163    14.864163    14.864163            0            0            0 
    8600    278.42801   -1222.5348    206.10202   -1016.4328   -610.99719    14.987153    14.987153    14.987153            0            0            0 
    8700    293.08488   -1217.2934    216.95154   -1000.3418   -97.019487    14.882494    14.882494    14.882494            0            0            0 
    8800    284.35097   -1206.1377     210.4864   -995.65132   -412.82094    15.018371    15.018371    15.018371            0            0            0 
    8900    284.91636   -1178.3577    210.90492    -967.4528   -264.48679    15.150931    15.150931    15.150931            0            0            0 
    9000    281.72091    -1186.006    208.53953   -977.46642    693.90287    14.993418    14.993418    14.993418            0            0            0 
    9100    309.39414   -1203.8616    229.02421   -974.83737   -1543.2658    15.085114    15.085114    15.085114            0            0            0 
    9200    294.83267   -1237.3964    218.24532    -1019.151    889.05786     14.81434     14.81434     14.81434            0            0            0 
    9300    303.50978   -1222.1769    224.66841    -997.5085     256.0401    14.767748    14.767748    14.767748            0            0            0 
    9400    272.66733   -1214.2893    201.83777   -1012.4516    787.17036    14.793686    14.793686    14.793686            0            0            0 
    9500    301.35821   -1244.5995    223.07574   -1021.5237    789.47528     14.71237     14.71237     14.71237            0            0            0 
    9600    273.06171   -1191.3889     202.1297   -989.25924    1278.1658    14.906487    14.906487    14.906487            0            0            0 
    9700    309.32348   -1208.8821    228.97191   -979.91021   -2035.5055    15.082312    15.082312    15.082312            0            0            0 
    9800    308.23493   -1199.3809    228.16613   -971.21479    2174.8107    15.020834    15.020834    15.020834            0            0            0 
    9900    312.95903    -1206.667    231.66307   -975.00388    -1101.619    15.287732    15.287732    15.287732            0            0            0 
   10000    279.47874   -1203.3501     206.8798   -996.47029    3068.1616    15.063937    15.063937    15.063937            0            0            0 
   10100    285.91839   -1207.2008    211.64666    -995.5541    418.00935     15.07852     15.07852     15.07852            0            0            0 
   10200     304.9376   -1192.4312    225.72533   -966.70583   -296.20053    15.184257    15.184257    15.184257            0            0            0 
   10300    297.71498   -1193.8225     220.3789   -973.44363   -961.30253    15.181374    15.181374    15.181374            0            0            0 
   10400    301.68392   -1204.5676    223.31684   -981.25072   -244.40046    15.032867    15.032867    15.032867            0            0            0 
   10500    299.12682   -1219.5599    221.42399   -998.13592   -884.04402    15.118906    15.118906    15.118906            0            0            0 
   10600    297.78147   -1202.1942    220.42812   -981.76607   -636.79603    15.121717    15.121717    15.121717            0            0            0 
   10700    279.25602   -1193.9979    206.71494     -987.283    1155.4451    15.151419    15.151419    15.151419            0            0            0 
   10800    302.69864   -1204.4428    224.06798   -980.37479    1847.2107    15.023649    15.023649    15.023649            0            0            0 
   10900    313.96903   -1182.8688    232.41071    -950.4581    431.86502    15.004066    15.004066    15.004066            0            0            0 
   11000    280.79732   -1190.8808    207.85586   -983.02498   -918.30876    15.139097    15.139097    15.139097            0            0            0 
   11100    301.70491   -1184.0698    223.33238   -960.73744    2567.6615      15.0313      15.0313      15.0313            0            0            0 
   11200    315.19887   -1199.3807    233.32108   -966.05961   -101.98376    15.048897    15.048897    15.048897            0            0            0 
   11300    272.47614   -1193.0382    201.69624   -991.34199   -1208.0631    14.929824    14.929824    14.929824            0            0            0 
   11400    280.99822    -1186.418    208.00457   -978.41339    333.42863    14.880785    14.880785    14.880785            0            0            0 
   11500    297.76088   -1208.6001    220.41287   -988.18722    -1058.587    15.114521    15.114521    15.114521            0            0            0 
   11600    311.16547   -1217.0188    230.33541   -986.68335    2087.8296    15.039893    15.039893    15.039893            0            0            0 
   11700    269.75154   -1192.8227    199.67939   -993.14328   -1614.5818     15.18263     15.18263     15.18263            0            0            0 
   11800    279.68101   -1194.4708    207.02953   -987.44125    103.62433    14.898548    14.898548    14.898548            0            0            0 
   11900    290.77401   -1226.1071    215.24096   -1010.8661     -762.267    14.794037    14.794037    14.794037            0            0            0 
   12000    240.29201   -1198.3605    177.87244   -1020.4881    39.229294    14.917398    14.917398    14.917398            0            0            0 
   12100    280.43992   -1212.4385     207.5913   -1004.8472    361.99186     14.83684     14.83684     14.83684            0            0            0 
   12200    287.72154   -1213.5377    212.98141   -1000.5563   -1212.8055    14.765948    14.765948    14.765948            0            0            0 
   12300    271.81143   -1205.2188     201.2042   -1004.0146   -625.92712    14.712254    14.712254    14.712254            0            0            0 
   12400    283.02798   -1209.2878    209.50707   -999.78069   -349.15265    14.863207    14.863207    14.863207            0            0            0 
   12500    304.85693   -1207.5808    225.66561   -981.91517    289.04584    14.963664    14.963664    14.963664            0            0            0 
   12600     302.9478   -1193.0403    224.25241   -968.78789   -677.15523    14.882964    14.882964    14.882964            0            0            0 
   12700    296.62797   -1189.9719    219.57426   -970.39762     1275.458    14.821016    14.821016    14.821016            0            0            0 
   12800    296.47165   -1191.7188    219.45854   -972.26025    694.50593    15.039838    15.039838    15.039838            0            0            0 
   12900    329.55956   -1228.1323    243.95135   -984.18094    689.61134    14.969698    14.969698    14.969698            0            0            0 
   13000    321.01999   -1209.1179    237.63007   -971.48779   -1210.0745    15.027051    15.027051    15.027051            0            0            0 
   13100    288.59632   -1181.3964    213.62895   -967.76749   -386.00313    14.992615    14.992615    14.992615            0            0            0 
   13200    305.25003   -1194.7888     225.9566   -968.83215   -277.76485    14.982221    14.982221    14.982221            0            0            0 
   13300    328.35906   -1223.0727     243.0627   -980.00996    -203.8592    14.927306    14.927306    14.927306            0            0            0 
   13400    324.37933   -1215.0303    240.11677   -974.91353   -217.77487    14.892535    14.892535    14.892535            0            0            0 
   13500    296.59126   -1236.6319    219.54708   -1017.0848    342.21466    14.801012    14.801012    14.801012            0            0            0 
   13600    308.62515   -1224.2797    228.45498   -995.82473   -1146.6466    14.893057    14.893057    14.893057            0            0            0 
   13700    315.65483   -1244.2956    233.65859    -1010.637    31.763925     14.87323     14.87323     14.87323            0            0            0 
   13800    305.00715   -1230.6424    225.77682   -1004.8656    3132.1065    14.808736    14.808736    14.808736            0            0            0 
   13900    301.83688   -1204.3589    223.43007   -980.92884    -1614.229     15.11476     15.11476     15.11476            0            0            0 
   14000    308.41602     -1215.57    228.30018    -987.2698    1357.3935    15.001473    15.001473    15.001473            0            0            0 
   14100    309.39944   -1190.8803    229.02814   -961.85218    76.297316     15.20348     15.20348     15.20348            0            0            0 
   14200    289.66034   -1200.3632    214.41658   -985.94662    430.78407    15.130878    15.130878    15.130878            0            0            0 
   14300    276.65394   -1210.5116    204.78879   -1005.7228     986.6034    14.984131    14.984131    14.984131            0            0            0 
   14400    299.74716   -1208.7664    221.88319   -986.88323    856.59654    14.844136    14.844136    14.844136            0            0            0 
   14500    299.49336   -1209.2085    221.69531   -987.51315   -515.60642    14.857493    14.857493    14.857493            0            0            0 
   14600    299.66539   -1229.9427    221.82266     -1008.12    2391.9521    14.763637    14.763637    14.763637            0            0            0 
   14700    269.19414   -1213.5002    199.26679   -1014.2334   -814.74717    14.888869    14.888869    14.888869            0            0            0 
   14800    303.42446   -1232.0448    224.60525   -1007.4396   -1047.7806    14.835238    14.835238    14.835238            0            0            0 
   14900    290.05166   -1210.0303    214.70624   -995.32402    729.20324    14.742303    14.742303    14.742303            0            0            0 
   15000    317.47593   -1210.4398    235.00664   -975.43317   -572.83335    14.840244    14.840244    14.840244            0            0            0 
   15100    324.74704   -1217.7463    240.38896   -977.35739    1705.4447     14.80617     14.80617     14.80617            0            0            0 
   15200    318.88334   -1198.7517    236.04845   -962.70328   -2724.0606    15.074152    15.074152    15.074152            0            0            0 
   15300    316.91078   -1207.5488    234.58829   -972.96056    1035.3244    14.759538    14.759538    14.759538            0            0            0 
   15400    313.54194   -1220.0826    232.09456   -987.98801    842.05743    14.823437    14.823437    14.823437            0            0            0 
   15500    300.89693   -1210.9016    222.73429   -988.16732    368.34196    14.949856    14.949856    14.949856            0            0            0 
   15600    301.92845   -1229.1975    223.49785   -1005.6997   -1687.0738    14.987584    14.987584    14.987584            0            0            0 
   15700    307.42006   -1245.5635    227.56294   -1018.0005    436.58305    14.888466    14.888466    14.888466            0            0            0 
   15800    274.17697   -1198.9897    202.95525    -996.0345    341.93153    15.002722    15.002722    15.002722            0            0            0 
   15900    291.64576   -1219.0106    215.88625   -1003.1244    1743.2382    14.866009    14.866009    14.866009            0            0            0 
   16000    302.77481   -1235.4218    224.12436   -1011.2975   -2100.0098      15.0849      15.0849      15.0849            0            0            0 
   16100    299.66795   -1227.0555    221.82455   -1005.2309    1546.7667    14.928064    14.928064    14.928064            0            0            0 
   16200    289.68644    -1202.411     214.4359    -987.9751   -1994.8149     15.29785     15.29785     15.29785            0            0            0 
   16300    295.69645   -1205.5936    218.88471   -986.70889   -158.18696    15.093538    15.093538    15.093538            0            0            0 
   16400     290.1124   -1219.1572     214.7512    -1004.406   -1971.2096    15.073074    15.073074    15.073074            0            0            0 
   16500    314.71439   -1231.1414    232.96245   -998.17898   -505.45788     14.98082     14.98082     14.98082            0            0            0 
   16600    262.05486     -1235.43    193.98205   -1041.4479    461.33666    14.873079    14.873079    14.873079            0            0            0 
   16700    289.65588   -1225.7271    214.41328   -1011.3139   -332.81297    14.871093    14.871093    14.871093            0            0            0 
   16800    290.93424   -1244.7439    215.35956   -1029.3844   -2130.8664    14.874467    14.874467    14.874467            0            0            0 
   16900    289.26262   -1247.2523    214.12217   -1033.1302    1330.9541    14.825167    14.825167    14.825167            0            0            0 
   17000    304.38174   -1188.8649    225.31386   -963.55106    1903.4153    14.846164    14.846164    14.846164            0            0            0 
   17100     317.5816   -1213.8446    235.08485   -978.75971   -501.08004    14.849632    14.849632    14.849632            0            0            0 
   17200    309.71133   -1189.2985    229.25901   -960.03952   -1621.8752    14.982731    14.982731    14.982731            0            0            0 
   17300    308.22555     -1213.67    228.15918   -985.51082    2125.2254    14.932165    14.932165    14.932165            0            0            0 
   17400    316.66146   -1193.6503    234.40374   -959.24661    758.99807    15.095443    15.095443    15.095443            0            0            0 
   17500    285.63424   -1185.5771    211.43632   -974.14083   -508.00078     15.26239     15.26239     15.26239            0            0            0 
   17600    283.68747   -1174.9951    209.99525   -964.99986    678.86043    15.041931    15.041931    15.041931            0            0            0 
   17700    288.86091   -1211.1514    213.82481   -997.32654   -1307.9744    14.981728    14.981728    14.981728            0            0            0 
   17800    291.28031   -1217.0668    215.61573   -1001.4511   -903.64894    15.047705    15.047705    15.047705            0            0            0 
   17900     269.6183   -1208.6848    199.58077    -1009.104   -1537.3624    15.117046    15.117046    15.117046            0            0            0 
   18000    296.45044   -1222.6657    219.44284   -1003.2228   -217.47832    14.912371    14.912371    14.912371            0            0            0 
   18100     292.3097   -1214.2787    216.37772   -997.90093   -966.79107    15.007701    15.007701    15.007701            0            0            0 
   18200    310.83846   -1228.4078    230.09335   -998.31444    1615.8988    14.809549    14.809549    14.809549            0            0            0 
   18300    290.72548   -1196.2329    215.20503   -981.02783   -1985.0049    15.004998    15.004998    15.004998            0            0            0 
   18400    294.20951   -1202.5797    217.78403   -984.79566   -812.14267    14.940313    14.940313    14.940313            0            0            0 
   18500    310.20803   -1194.0471    229.62669   -964.42042    903.42113    14.982619    14.982619    14.982619            0            0            0 
   18600    298.61962   -1200.5003    221.04854   -979.45179     1523.969    15.002149    15.002149    15.002149            0            0            0 
   18700    288.01553   -1195.9083    213.19903    -982.7093   -1500.6444    15.032795    15.032795    15.032795            0            0            0 
   18800     304.2456   -1200.0582    225.21309   -974.84516   -356.30175    14.992345    14.992345    14.992345            0            0            0 
   18900    294.37684   -1211.0413    217.90789   -993.13341   -838.98158    15.028551    15.028551    15.028551            0            0            0 
   19000    301.58478   -1211.0229    223.24346   -987.77945   -724.91911    14.904901    14.904901    14.904901            0            0            0 
   19100    281.38946   -1208.4195    208.29418   -1000.1253    367.84456    14.835926    14.835926    14.835926            0            0            0 
   19200    293.90407   -1216.7405    217.55793   -999.18255   -2300.6993    14.998535    14.998535    14.998535            0            0            0 
   19300      276.528   -1207.3113    204.69556   -1002.6158    1340.5208    14.862501    14.862501    14.862501            0            0            0 
   19400    318.98966   -1218.7881    236.12715    -982.6609   -1877.6293    14.990812    14.990812    14.990812            0            0            0 
   19500    313.04985   -1202.6349     231.7303   -970.90457    1488.3681    14.999279    14.999279    14.999279            0            0            0 
   19600    293.73898   -1211.7433    217.43573    -994.3076   -5.2775144    15.074695    15.074695    15.074695            0            0            0 
   19700    294.24576   -1190.1129    217.81086   -972.30205    1181.9532    15.061731    15.061731    15.061731            0            0            0 
   19800    271.25038   -1191.5367    200.78889   -990.74784    -892.6623    15.159742    15.159742    15.159742            0            0            0 
   19900    288.31586   -1226.3932    213.42134   -1012.9718       1115.3    14.883362    14.883362    14.883362            0            0            0 
   20000    275.65659   -1226.4317    204.05052   -1022.3812   -156.75524    14.992552    14.992552    14.992552            0            0            0 
   20100    287.06188   -1229.0094    212.49311   -1016.5163    446.12061    15.009152    15.009152    15.009152            0            0            0 
   20200    307.00979   -1215.7257    227.25923   -988.46643    525.90792    14.848414    14.848414    14.848414            0            0            0 
   20300    296.07579   -1215.4079    219.16551   -996.24234   -3306.1989    14.977469    14.977469    14.977469            0            0            0 
   20400    305.52082   -1227.6439    226.15705   -1001.4868    1108.5317    14.884849    14.884849    14.884849            0            0            0 
   20500    316.36589   -1202.4287    234.18495   -968.24376   -1224.4027    15.047071    15.047071    15.047071            0            0            0 
   20600    311.58411   -1229.0041    230.64531   -998.35881   -748.13066    15.069262    15.069262    15.069262            0            0            0 
   20700    292.55597   -1214.2376    216.56002   -997.67756   -2009.6664    15.105871    15.105871    15.105871            0            0            0 
   20800    300.41689   -1232.4218    222.37895   -1010.0428    1221.6649     14.98593     14.98593     14.98593            0            0            0 
   20900      292.066   -1213.6666    216.19733   -997.46932    -463.0687    15.196374    15.196374    15.196374            0            0            0 
   21000     299.3345   -1212.4906    221.57773   -990.91291    8.4134968    15.039729    15.039729    15.039729            0            0            0 
   21100    307.14492   -1228.6849    227.35926   -1001.3256    903.10705    14.949295    14.949295    14.949295            0            0            0 
   21200    284.72886   -1229.0083    210.76613   -1018.2421    1711.3928     15.03788     15.03788     15.03788            0            0            0 
   21300    326.66948   -1222.3382    241.81201   -980.52622    100.54612     15.08643     15.08643     15.08643            0            0            0 
   21400    317.06206   -1201.4414    234.70027   -966.74113   -1840.8939    15.176887    15.176887    15.176887            0            0            0 
   21500    320.54338   -1199.2902    237.27727   -962.01294    1809.7886    14.996185    14.996185    14.996185            0            0            0 
   21600    303.88264   -1192.9739    224.94441   -968.02948   -462.07875    15.210935    15.210935    15.210935            0            0            0 
   21700    290.84211   -1174.0295    215.29137   -958.73811   -991.71936    15.393001    15.393001    15.393001            0            0            0 
   21800    311.81992   -1191.6725    230.81986    -960.8526    3069.4799    15.152762    15.152762    15.152762            0            0            0 
   21900    305.25129    -1217.534    225.95753   -991.57644   -25.712982    15.234831    15.234831    15.234831            0            0            0 
   22000     301.1218   -1205.3099    222.90074   -982.40921    911.91768    15.207944    15.207944    15.207944            0            0            0 
   22100    282.50864    -1190.875    209.12264    -981.7524   -852.85611    15.292305    15.292305    15.292305            0            0            0 
   22200    293.56071   -1177.9786    217.30376    -960.6748   -276.54609    15.209255    15.209255    15.209255            0            0            0 
   22300     310.8499   -1228.8894    230.10182   -998.78756    732.31752    15.180472    15.180472    15.180472            0            0            0 
   22400    303.32831   -1219.9614    224.53408   -995.42731   -2472.3737    15.381601    15.381601    15.381601            0            0            0 
   22500    286.24614   -1206.3351    211.88927   -994.44586    1162.5176    15.147989    15.147989    15.147989            0            0            0 
   22600    281.47895   -1202.5666    208.36043   -994.20616   -53.019286    15.031139    15.031139    15.031139            0            0            0 
   22700    304.76794   -1214.2287    225.59974   -988.62894     18.63274    14.948211    14.948211    14.948211            0            0            0 
   22800    303.66783   -1193.3099     224.7854   -968.52447    210.69325     15.06181     15.06181     15.06181            0            0            0 
   22900    325.15039   -1161.7149    240.68753   -921.02741    175.48568    15.165036    15.165036    15.165036            0            0            0 
   23000    310.43902   -1184.1185    229.79767   -954.32086    1709.8908    14.976984    14.976984    14.976984            0            0            0 
   23100    291.23317   -1189.2268    215.58084   -973.64599    733.41193    14.837955    14.837955    14.837955            0            0            0 
   23200    301.30474   -1211.3814    223.03616   -988.34521   -2476.1297    15.064039    15.064039    15.064039            0            0            0 
   23300    295.86034   -1193.5278    219.00603   -974.52178    1295.2912    14.861259    14.861259    14.861259            0            0            0 
   23400    303.86649   -1200.4968    224.93246    -975.5643    280.56062    14.882882    14.882882    14.882882            0            0            0 
   23500    325.94928   -1198.0989     241.2789   -956.81998    661.24632    14.922328    14.922328    14.922328            0            0            0 
   23600    303.26616   -1202.8805    224.48807   -978.39246    1044.2847    14.913999    14.913999    14.913999            0            0            0 
   23700    319.01975   -1216.7152    236.14942   -980.56574   -385.69876    15.059713    15.059713    15.059713            0            0            0 
   23800    302.59454   -1194.5323    223.99092    -970.5414   -617.07985    15.237564    15.237564    15.237564            0            0            0 
   23900    301.74526   -1204.9955    223.36225    -981.6332    473.76312    15.253076    15.253076    15.253076            0            0            0 
   24000    271.18963   -1205.5853    200.74392   -1004.8414    1697.1343     15.10876     15.10876     15.10876            0            0            0 
   24100    299.24066   -1207.5357    221.50826   -986.02749   -1273.3377    15.182682    15.182682    15.182682            0            0            0 
   24200    312.09623   -1207.9137    231.02439   -976.88935    1816.5502    14.872542    14.872542    14.872542            0            0            0 
   24300    297.01893   -1190.5022    219.86366   -970.63854   -1446.2325    15.101234    15.101234    15.101234            0            0            0 
   24400    303.45662    -1182.392    224.62906    -957.7629   -935.32789    15.155209    15.155209    15.155209            0            0            0 
   24500    292.63682   -1189.0872    216.61987   -972.46732    3797.7551    14.865232    14.865232    14.865232            0            0            0 
   24600    269.92159   -1202.0862    199.80527    -1002.281   -1651.5926    15.178622    15.178622    15.178622            0            0            0 
   24700    323.46934    -1204.985    239.44317   -965.54179   -1010.1426    15.104129    15.104129    15.104129            0            0            0 
   24800    305.98772   -1213.4153    226.50267   -986.91261    1724.5932     14.98191     14.98191     14.98191            0            0            0 
   24900    310.06603   -1191.0481    229.52157   -961.52656   -365.31136    15.209768    15.209768    15.209768            0            0            0 
   25000    268.89836   -1189.8612    199.04784   -990.81335    -262.9634    15.117528    15.117528    15.117528            0            0            0 
   25100    327.59851    -1231.099    242.49972   -988.59927   -1370.7388    15.038485    15.038485    15.038485            0            0            0 
   25200    267.47562   -1202.1662    197.99468   -1004.1715   -1654.0083    15.181284    15.181284    15.181284            0            0            0 
   25300    323.48623   -1208.8114    239.45567   -969.35569    356.70885    15.034695    15.034695    15.034695            0            0            0 
   25400    296.62463   -1225.5638    219.57178    -1005.992    1515.9227     14.97583     14.97583     14.97583            0            0            0 
   25500    288.05076   -1212.2697    213.22511   -999.04456   -641.83946    15.209138    15.209138    15.209138            0            0            0 
   25600    314.93618   -1215.3997    233.12663   -982.27303   -649.06677    15.107501    15.107501    15.107501            0            0            0 
   25700    309.82816   -1228.3447    229.34549   -998.99924    418.15588    14.944793    14.944793    14.944793            0            0            0 
   25800    330.00902   -1221.0996    244.28406   -976.81551    844.30444    14.983581    14.983581    14.983581            0            0            0 
   25900    269.54976   -1226.4111    199.53003    -1026.881    -235.8458    14.978989    14.978989    14.978989            0            0            0 
   26000    281.11139   -1225.8808    208.08835   -1017.7924    290.54336    14.945471    14.945471    14.945471            0            0            0 
   26100    288.10156     -1206.16    213.26271   -992.89731    368.16053    15.128526    15.128526    15.128526            0            0            0 
   26200    313.70077   -1215.8429    232.21213   -983.63074    389.12946     15.00766     15.00766     15.00766            0            0            0 
   26300    322.80144   -1212.5286    238.94876   -973.57987   -2263.8418    15.026049    15.026049    15.026049            0            0            0 
   26400    322.22224   -1211.0378    238.52002   -972.51775    548.47827    14.945926    14.945926    14.945926            0            0            0 
   26500    303.55614   -1193.7436    224.70272   -969.04083   -790.34364    15.107954    15.107954    15.107954            0            0            0 
   26600    306.92243   -1189.4565    227.19457   -962.26193    1829.3324     14.98327     14.98327     14.98327            0            0            0 
   26700    294.15303   -1191.5832    217.74222   -973.84098    737.16548    15.046916    15.046916    15.046916            0            0            0 
   26800    327.36256   -1202.3732    242.32506   -960.04811   -1200.9286    15.125264    15.125264    15.125264            0            0            0 
   26900    287.10175   -1190.7028    212.52262   -978.18018    1290.1344     14.83949     14.83949     14.83949            0            0            0 
   27000    331.93083   -1203.0629    245.70665   -957.35628    23.142068    14.900523    14.900523    14.900523            0            0            0 
   27100    326.34185   -1195.0437     241.5695   -953.47417   -1416.3406    14.937751    14.937751    14.937751            0            0            0 
   27200    294.75739   -1209.7135    218.18958   -991.52393    -426.9098    15.005144    15.005144    15.005144            0            0            0 
   27300    288.64026    -1180.218    213.66148   -966.55649    1317.7402    15.047782    15.047782    15.047782            0            0            0 
   27400    285.65837   -1192.6037    211.45418   -981.14948   -387.54041     15.18061     15.18061     15.18061            0            0            0 
   27500    314.93359   -1199.6779    233.12471   -966.55323   -37.086561    15.107137    15.107137    15.107137            0            0            0 
   27600    329.75621     -1173.76    244.09692   -929.66305    1314.5384    15.006182    15.006182    15.006182            0            0            0 
   27700    317.75497   -1169.9042    235.21319   -934.69103    1418.4198    14.999294    14.999294    14.999294            0            0            0 
   27800    329.33261   -1190.4308    243.78335   -946.64749    1561.9005    15.057543    15.057543    15.057543            0            0            0 
   27900    307.35486   -1214.3343    227.51467   -986.81964    203.76378    15.146064    15.146064    15.146064            0            0            0 
   28000    304.25288   -1206.2775    225.21848   -981.05906   -359.35099    15.128773    15.128773    15.128773            0            0            0 
   28100    309.39388   -1213.0055    229.02402   -983.98151   -765.63065    15.054329    15.054329    15.054329            0            0            0 
   28200    311.64234    -1175.713    230.68841   -945.02463   -1294.7116    15.164357    15.164357    15.164357            0            0            0 
   28300    297.92086   -1215.6915     220.5313   -995.16021    2261.3009    14.969227    14.969227    14.969227            0            0            0 
   28400    288.55958   -1188.6875    213.60176   -975.08576    517.46435    15.150497    15.150497    15.150497            0            0            0 
   28500    288.64903    -1200.767    213.66797   -987.09899    -1153.137    15.261185    15.261185    15.261185            0            0            0 
   28600    290.86478   -1169.8655    215.30815   -954.55733   -159.34954    15.286497    15.286497    15.286497            0            0            0 
   28700    284.73751    -1194.317    210.77253   -983.54447    2261.9594    14.966535    14.966535    14.966535            0            0            0 
   28800    284.84958   -1198.6892    210.85548   -987.83376   -768.31703    15.063047    15.063047    15.063047            0            0            0 
   28900    314.54966   -1196.0829    232.84051   -963.24235    -273.2228     15.20543     15.20543     15.20543            0            0            0 
   29000    301.83142   -1161.1806    223.42603   -937.75458   -1060.3826    15.333429    15.333429    15.333429            0            0            0 
   29100    316.78148   -1190.3022    234.49258   -955.80966    1036.5088    15.142782    15.142782    15.142782            0            0            0 
   29200     312.4785   -1188.8423    231.30737    -957.5349    786.61006    15.123576    15.123576    15.123576            0            0            0 
   29300     338.3303   -1209.6157    250.44376   -959.17195    1059.7311    15.057707    15.057707    15.057707            0            0            0 
   29400    275.76379   -1177.2413    204.12987   -973.11147   -584.59031    15.212596    15.212596    15.212596            0            0            0 
   29500    310.87637   -1197.6778    230.12141   -967.55641    1100.5165     14.98434     14.98434     14.98434            0            0            0 
   29600    309.84633   -1217.7695    229.35894   -988.41053    1120.4421    14.925904    14.925904    14.925904            0            0            0 
   29700    283.04659   -1209.0282    209.52085   -999.50737    165.24151    15.022138    15.022138    15.022138            0            0            0 
   29800    272.86226   -1173.9781    201.98206   -971.99601   -1368.4962    15.215551    15.215551    15.215551            0            0            0 
   29900    282.29846   -1191.6861    208.96706     -982.719    1847.7195    14.955366    14.955366    14.955366            0            0            0 
   30000    303.71011   -1177.3818     224.8167   -952.56508   -548.74243    15.067199    15.067199    15.067199            0            0            0 
   30100    291.88311   -1217.9397    216.06195   -1001.8777   -479.78879    14.958819    14.958819    14.958819            0            0            0 
   30200    315.70082   -1211.1305    233.69264   -977.43789   -81.040056    14.903705    14.903705    14.903705            0            0            0 
   30300     310.4595   -1193.2222    229.81283   -963.40933    -680.5674    15.016303    15.016303    15.016303            0            0            0 
   30400    329.59581   -1208.0728    243.97819   -964.09463    697.42202    14.948143    14.948143    14.948143            0            0            0 
   30500     305.8171   -1176.3251    226.37637   -949.94877   -1310.4958    15.226137    15.226137    15.226137            0            0            0 
   30600    311.64516   -1216.5806     230.6905   -985.89006    690.23514    15.235561    15.235561    15.235561            0            0            0 
   30700    291.79592   -1188.5718    215.99741   -972.57438    872.87724    15.292104    15.292104    15.292104            0            0            0 
   30800    316.71323    -1211.242    234.44206   -976.79996   -1213.0346    15.232132    15.232132    15.232132            0            0            0 
   30900    281.44497   -1201.5158    208.33527   -993.18056    1283.8555    14.999542    14.999542    14.999542            0            0            0 
   31000    287.94778   -1185.6127    213.14888    -972.4638   -35.549649    15.120447    15.120447    15.120447            0            0            0 
   31100    311.16197   -1200.6435    230.33282   -970.31065    125.20806    15.064017    15.064017    15.064017            0            0            0 
   31200    308.32691   -1210.1251    228.23422   -981.89091   -534.14476    15.043774    15.043774    15.043774            0            0            0 
   31300    296.09536   -1183.9132       219.18   -964.73325    -867.4742    15.292759    15.292759    15.292759            0            0            0 
   31400    319.58428   -1190.7569    236.56731   -954.18957    2993.2965    15.230433    15.230433    15.230433            0            0            0 
   31500    272.01336    -1170.833    201.35367   -969.47934   -2341.4313    15.493685    15.493685    15.493685            0            0            0 
   31600    319.44936   -1198.2206    236.46744   -961.75312    623.18722    15.284389    15.284389    15.284389            0            0            0 
   31700    286.65603    -1181.772    212.19268   -969.57934   -6.4338006    15.249561    15.249561    15.249561            0            0            0 
   31800    303.87819   -1187.2639    224.94112    -962.3228    932.97022    15.084431    15.084431    15.084431            0            0            0 
   31900     288.0062   -1198.2061    213.19212   -985.01395    1591.6855     15.11076     15.11076     15.11076            0            0            0 
   32000    288.09456    -1200.067    213.25753   -986.80946    1048.9323    15.274044    15.274044    15.274044            0            0            0 
   32100    295.14398   -1230.0083    218.47575   -1011.5326    348.12115     15.23169     15.23169     15.23169            0            0            0 
   32200    307.23938   -1199.6439    227.42919   -972.21471   -1320.8286    15.309567    15.309567    15.309567            0            0            0 
   32300    300.42168   -1203.9468    222.38249   -981.56427    890.32918    15.103919    15.103919    15.103919            0            0            0 
   32400    308.34991   -1191.5968    228.25124   -963.34558    377.55472    15.084331    15.084331    15.084331            0            0            0 
   32500    292.14982   -1200.4975    216.25937   -984.23817   -116.82946    15.127632    15.127632    15.127632            0            0            0 
   32600    322.55676   -1205.5663    238.76764   -966.79871    90.010645    15.111202    15.111202    15.111202            0            0            0 
   32700    283.34225   -1130.7027    209.73971   -920.96299   -1753.2568     15.20276     15.20276     15.20276            0            0            0 
   32800    281.78625   -1189.2994     208.5879   -980.71154    1760.5972    15.066505    15.066505    15.066505            0            0            0 
   32900    320.55923   -1188.1731      237.289   -950.88408    499.59709     15.11951     15.11951     15.11951            0            0            0 
   33000     296.0144   -1188.2841    219.12007   -969.16401   -851.69546    15.182774    15.182774    15.182774            0            0            0 
   33100    300.76166   -1167.6027    222.63415   -944.96853    297.69934    15.231802    15.231802    15.231802            0            0            0 
   33200    322.61974   -1198.7788    238.81426   -959.96455   -540.92018    15.259569    15.259569    15.259569            0            0            0 
   33300     308.8223   -1176.8179    228.60092   -948.21695    123.58754    15.223357    15.223357    15.223357            0            0            0 
   33400    301.68464   -1171.5462    223.31737   -948.22878    342.12183    15.055182    15.055182    15.055182            0            0            0 
   33500    342.19438   -1230.2687    253.30408   -976.96461    1081.1225    14.876773    14.876773    14.876773            0            0            0 
   33600    299.06562   -1200.8155    221.37869   -979.43679   -280.22787    15.056207    15.056207    15.056207            0            0            0 
   33700    317.84202   -1190.5001    235.27763   -955.22244   -167.68569    14.963395    14.963395    14.963395            0            0            0 
   33800    320.66236   -1174.8378    237.36534   -937.47251   -291.12644    14.952902    14.952902    14.952902            0            0            0 
   33900    298.15592   -1186.5917     220.7053   -965.88641    1765.4069    14.851539    14.851539    14.851539            0            0            0 
   34000     268.2859   -1175.1088    198.59448   -976.51436    2535.7153    14.875482    14.875482    14.875482            0            0            0 
   34100    291.83932   -1205.3481    216.02954   -989.31854    351.30663     14.93683     14.93683     14.93683            0            0            0 
   34200    301.34968   -1189.2259    223.06943   -966.15647   -2091.0229    15.125229    15.125229    15.125229            0            0            0 
   34300     318.4645   -1200.8163    235.73841   -965.07786    1518.0203    14.947712    14.947712    14.947712            0            0            0 
   34400    319.61891   -1182.3026    236.59294   -945.70961    1375.0445    15.095171    15.095171    15.095171            0            0            0 
   34500    311.81919   -1191.0769    230.81932   -960.25754    94.367587    15.020787    15.020787    15.020787            0            0            0 
   34600    278.27099   -1181.8062    205.98578   -975.82047   -66.260584    14.896668    14.896668    14.896668            0            0            0 
   34700    307.32401   -1193.6206    227.49184   -966.12874    855.26119    14.793104    14.793104    14.793104            0            0            0 
   34800    281.27005   -1205.7233    208.20579   -997.51752    47.446122    14.834784    14.834784    14.834784            0            0            0 
   34900    282.04413   -1201.6266    208.77879   -992.84777   -407.19522    14.819967    14.819967    14.819967            0            0            0 
   35000    330.13495   -1229.0701    244.37728   -984.69282   -675.23496    14.902745    14.902745    14.902745            0            0            0 
   35100    305.47818   -1223.6212    226.12549   -997.49569    275.19064    14.931842    14.931842    14.931842            0            0            0 
   35200     299.4199   -1197.4659    221.64094     -975.825   -87.624903    14.980088    14.980088    14.980088            0            0            0 
   35300    315.05942   -1202.2124    233.21785   -968.99452   -1761.2439    14.996838    14.996838    14.996838            0            0            0 
   35400    294.81289   -1215.5379    218.23067   -997.30721   -57.212352    14.914956    14.914956    14.914956            0            0            0 
   35500    305.29425   -1221.8673    225.98933   -995.87799     160.4196    14.854709    14.854709    14.854709            0            0            0 
   35600    280.09777   -1218.9417    207.33803   -1011.6037    1384.6463    14.813763    14.813763    14.813763            0            0            0 
   35700    300.30158   -1207.8091    222.29359    -985.5155    263.47567     14.83898     14.83898     14.83898            0            0            0 
   35800    300.76873   -1215.8913    222.63939   -993.25194   -2511.8499    15.065246    15.065246    15.065246            0            0            0 
   35900    308.91861   -1216.0846    228.67221   -987.41242   -505.34128    15.013122    15.013122    15.013122            0            0            0 
   36000    311.81588   -1207.6313    230.81687   -976.81446     1435.374    15.016767    15.016767    15.016767            0            0            0 
   36100    284.86687   -1194.5626    210.86829    -983.6943    -155.6971    15.069337    15.069337    15.069337            0            0            0 
   36200    285.05954   -1196.7273     211.0109    -985.7164    643.03572    14.962468    14.962468    14.962468            0            0            0 
   36300    288.09794   -1190.9886    213.26003   -977.72858   -1336.7505    15.108325    15.108325    15.108325            0            0            0 
   36400    306.11836   -1215.9311    226.59937   -989.33175    662.03531    14.882526    14.882526    14.882526            0            0            0 
   36500    330.91927   -1221.0617    244.95786   -976.10382    -1986.453    14.932327    14.932327    14.932327            0            0            0 
   36600    309.52689   -1228.2843    229.12248   -999.16185    595.20675    14.719471    14.719471    14.719471            0            0            0 
   36700     300.8896   -1224.8817    222.72886   -1002.1529   -744.35495    15.014895    15.014895    15.014895            0            0            0 
   36800    310.07617   -1198.5722    229.52908    -969.0431    899.64571    14.912489    14.912489    14.912489            0            0            0 
   36900    329.09797   -1210.5992    243.60967    -966.9895    1509.6174    14.884791    14.884791    14.884791            0            0            0 
   37000    315.98972    -1194.686    233.90649   -960.77946    -452.4964    14.935178    14.935178    14.935178            0            0            0 
   37100    328.00831   -1186.1396    242.80306   -943.33654    495.22493    14.819034    14.819034    14.819034            0            0            0 
   37200    316.98778   -1200.6171    234.64529   -965.97177   -1193.1018    14.803912    14.803912    14.803912            0            0            0 
   37300     291.2605   -1224.6249    215.60107   -1009.0239    126.52215     14.79657     14.79657     14.79657            0            0            0 
   37400    296.47874   -1221.2525    219.46379   -1001.7888    958.48734       14.814       14.814       14.814            0            0            0 
   37500    299.03338    -1208.156    221.35482   -986.80114    -1729.769    14.987994    14.987994    14.987994            0            0            0 
   37600    277.53528   -1223.3389    205.44119   -1017.8977   -114.03818    14.943679    14.943679    14.943679            0            0            0 
   37700    316.34617   -1222.4732    234.17035   -988.30286   -78.753831    14.781595    14.781595    14.781595            0            0            0 
   37800    322.16201   -1216.9187    238.47543   -978.44324    330.24062    14.707723    14.707723    14.707723            0            0            0 
   37900    317.43254   -1202.3201    234.97452   -967.34562    161.92732    14.795569    14.795569    14.795569            0            0            0 
   38000      291.778   -1193.3417    215.98414   -977.35752    1417.0189    14.780074    14.780074    14.780074            0            0            0 
   38100     309.5774   -1215.8175    229.15987   -986.65762    196.98566    14.854849    14.854849    14.854849            0            0            0 
   38200    271.46284   -1207.1162    200.94616   -1006.1701   -492.93972    15.048603    15.048603    15.048603            0            0            0 
   38300    272.26015   -1221.1942    201.53635   -1019.6579    1287.6702    14.986809    14.986809    14.986809            0            0            0 
   38400     306.5692   -1224.9637     226.9331   -998.03062    24.781761    14.966189    14.966189    14.966189            0            0            0 
   38500    310.45683   -1232.2149    229.81085    -1002.404    3824.6304    14.748036    14.748036    14.748036            0            0            0 
   38600    279.28966   -1218.5792    206.73984   -1011.8394    80.631559    15.067296    15.067296    15.067296            0            0            0 
   38700    287.83724   -1204.7974    213.06705   -991.73039   -146.98788    15.027581    15.027581    15.027581            0            0            0 
   38800    316.19077   -1201.3244    234.05532   -967.26904    414.64426    14.993844    14.993844    14.993844            0            0            0 
   38900    322.52444   -1181.8028    238.74372   -943.05904    1982.4886    14.999406    14.999406    14.999406            0            0            0 
   39000    292.48405   -1180.9715    216.50678   -964.46469    991.60585    15.107192    15.107192    15.107192            0            0            0 
   39100    300.42572    -1200.326    222.38548   -977.94054    1823.2168    14.990201    14.990201    14.990201            0            0            0 
   39200    311.85759   -1205.7159    230.84774   -974.86816    847.92686    15.010305    15.010305    15.010305            0            0            0 
   39300    291.99648   -1179.4936    216.14587   -963.34778   -17.869022    15.282002    15.282002    15.282002            0            0            0 
   39400    310.17176   -1206.4708    229.59984   -976.87095   -703.58747    15.310348    15.310348    15.310348            0            0            0 
   39500    311.06219   -1220.5879    230.25896   -990.32898    812.51935    15.096587    15.096587    15.096587            0            0            0 
   39600     287.1621   -1198.6582    212.56729   -986.09087     -537.042    15.156228    15.156228    15.156228            0            0            0 
   39700    303.35373   -1192.0595     224.5529   -967.50658    221.32018     15.16419     15.16419     15.16419            0            0            0 
   39800    279.95709   -1153.7804     207.2339   -946.54652   -1688.6888    15.340485    15.340485    15.340485            0            0            0 
   39900    316.80291   -1181.3617    234.50845   -946.85325     1148.273    15.184291    15.184291    15.184291            0            0            0 
   40000    329.35317   -1194.5699    243.79857   -950.77131   -42.990625    15.150966    15.150966    15.150966            0            0            0 
   40100    306.76162   -1196.6532    227.07553   -969.57766    1262.1091    15.217745    15.217745    15.217745            0            0            0 
   40200    290.31494   -1178.6013    214.90114   -963.70014    -759.7319    15.380035    15.380035    15.380035            0            0            0 
   40300    293.06154   -1172.2254    216.93426   -955.29113     2035.444    15.141682    15.141682    15.141682            0            0            0 
   40400    306.93366    -1175.148    227.20288   -947.94511   -2481.2692    15.285083    15.285083    15.285083            0            0            0 
   40500    279.07813   -1174.9728    206.58326   -968.38956    25.823786    14.893988    14.893988    14.893988            0            0            0 
   40600    304.21602   -1196.7062    225.19119   -971.51505     -869.038    14.929349    14.929349    14.929349            0            0            0 
   40700    318.70354   -1186.2138    235.91536   -950.29848   -1009.7985    15.123692    15.123692    15.123692            0            0            0 
   40800    294.81909   -1176.1531    218.23526   -957.91788   -476.13603    15.201413    15.201413    15.201413            0            0            0 
   40900     317.6222   -1198.9314    235.11491    -963.8165   -546.60046    15.039844    15.039844    15.039844            0            0            0 
   41000    289.44166   -1169.1072     214.2547    -954.8525    25.198539    15.005055    15.005055    15.005055            0            0            0 
   41100    308.57563   -1178.1212    228.41832   -949.70283    1263.2721    14.994346    14.994346    14.994346            0            0            0 
   41200    282.05848    -1187.836    208.78941   -979.04657    -193.4169    14.980413    14.980413    14.980413            0            0            0 
   41300     308.6419   -1224.0693    228.46738   -995.60191    519.73306    14.986688    14.986688    14.986688            0            0            0 
   41400    323.15566    -1187.876    239.21096   -948.66505    694.69335     15.11479     15.11479     15.11479            0            0            0 
   41500    287.83669   -1205.3497    213.06665   -992.28307    503.36487    15.147792    15.147792    15.147792            0            0            0 
   41600    297.65336    -1207.873    220.33329   -987.53971   -1007.2367    15.182078    15.182078    15.182078            0            0            0 
   41700    334.41715   -1181.2549    247.54711   -933.70778    352.45436    15.102512    15.102512    15.102512            0            0            0 
   41800    304.36193   -1182.4479     225.2992   -957.14873   -956.32048    15.319404    15.319404    15.319404            0            0            0 
   41900    294.88553   -1193.6324    218.28444   -975.34794   -1074.8397    15.364573    15.364573    15.364573            0            0            0 
   42000    315.65573      -1223.5    233.65926   -989.84072   -100.11443    15.169351    15.169351    15.169351            0            0            0 
   42100    308.76004   -1212.3091    228.55483   -983.75429    965.43428    15.053953    15.053953    15.053953            0            0            0 
   42200    292.03839   -1224.6973    216.17689   -1008.5204    482.43889    15.096938    15.096938    15.096938            0            0            0 
   42300    273.50497   -1196.1735    202.45781    -993.7157   -381.80947    15.235144    15.235144    15.235144            0            0            0 
   42400    289.61987   -1186.8314    214.38662   -972.44479   -493.45209    15.127477    15.127477    15.127477            0            0            0 
   42500    305.80864    -1215.772     226.3701   -989.40193     607.9563    15.117348    15.117348    15.117348            0            0            0 
   42600      283.593   -1194.5038    209.92532   -984.57846   -1965.5612    15.257381    15.257381    15.257381            0            0            0 
   42700    294.98054   -1210.9207    218.35477   -992.56591   -750.30853     15.16232     15.16232     15.16232            0            0            0 
   42800    309.69358   -1209.3432    229.24587   -980.09732    338.55388    14.996687    14.996687    14.996687            0            0            0 
   42900    298.34047   -1206.5367    220.84191   -985.69483   -2296.5265    14.990389    14.990389    14.990389            0            0            0 
   43000    269.88868   -1183.4408    199.78091   -983.65994   -1445.2537    14.981992    14.981992    14.981992            0            0            0 
   43100    300.34292   -1186.8239    222.32419   -964.49973   -265.86467    15.031404    15.031404    15.031404            0            0            0 
   43200     314.3851    -1233.812    232.71869   -1001.0934    155.67694    14.974418    14.974418    14.974418            0            0            0 
   43300    327.50977   -1219.1994    242.43403   -976.76541   -2054.6187    14.898531    14.898531    14.898531            0            0            0 
   43400    277.68069   -1192.8264    205.54883   -987.27761   -1179.1382     14.81188     14.81188     14.81188            0            0            0 
   43500    306.01869    -1202.132    226.52559   -975.60637   -1022.8375    14.927298    14.927298    14.927298            0            0            0 
   43600    296.15851   -1197.1867    219.22675   -977.95996    355.04371    14.895354    14.895354    14.895354            0            0            0 
   43700    274.48751   -1177.1527    203.18512   -973.96754   -367.86922    14.981922    14.981922    14.981922            0            0            0 
   43800    325.55361   -1183.0927    240.98601   -942.10668   -1784.6825    15.036231    15.036231    15.036231            0            0            0 
   43900    299.87521   -1193.5365    221.97797   -971.55851   -2117.7838    15.013467    15.013467    15.013467            0            0            0 
   44000    297.01931   -1178.8133    219.86394   -958.94938   -952.55995    15.044177    15.044177    15.044177            0            0            0 
   44100    276.59917    -1176.907    204.74825   -972.15874   -634.09846    14.981489    14.981489    14.981489            0            0            0 
   44200    310.08699   -1207.6476    229.53709   -978.11056   -24.150041    14.743849    14.743849    14.743849            0            0            0 
   44300    288.34586   -1188.5287    213.44355    -975.0851   -1798.3122    14.974547    14.974547    14.974547            0            0            0 
   44400    284.70015   -1195.8779    210.74487   -985.13298    179.51593    14.948027    14.948027    14.948027            0            0            0 
   44500    317.21767   -1204.7068    234.81546   -969.89138   -84.593742    14.912943    14.912943    14.912943            0            0            0 
   44600    298.88777   -1180.7006    221.24704   -959.45353   -708.81317     15.03713     15.03713     15.03713            0            0            0 
   44700    315.29352     -1166.17    233.39114   -932.77884   -715.89127     15.07581     15.07581     15.07581            0            0            0 
   44800    337.50248   -1197.0798    249.83098   -947.24878   -38.015499    15.090549    15.090549    15.090549            0            0            0 
   44900    323.19555   -1178.0286     239.2405    -938.7881    399.05828    15.043872    15.043872    15.043872            0            0            0 
   45000    284.05161   -1148.7185     210.2648   -938.45374    874.66647    14.996129    14.996129    14.996129            0            0            0 
   45100    313.18827   -1184.4269    231.83276   -952.59416   -52.419204    14.998645    14.998645    14.998645            0            0            0 
   45200    310.30267   -1207.3528    229.69674    -977.6561    557.93097    14.976779    14.976779    14.976779            0            0            0 
   45300    284.44612   -1219.0659    210.55683   -1008.5091   -2982.7752    15.162279    15.162279    15.162279            0            0            0 
   45400    268.88817   -1215.8036     199.0403   -1016.7633    588.42238    15.077375    15.077375    15.077375            0            0            0 
   45500    293.39342   -1208.8108    217.17993   -991.63086    1173.3575    15.101362    15.101362    15.101362            0            0            0 
   45600    282.80153   -1205.5319    209.33945   -996.19241     938.3555    15.050725    15.050725    15.050725            0            0            0 
   45700    300.99253   -1198.2255    222.80505   -975.42049   -1028.9382    15.104671    15.104671    15.104671            0            0            0 
   45800    298.43259   -1206.9891     220.9101   -986.07902   -835.16108    15.064451    15.064451    15.064451            0            0            0 
   45900    310.52884   -1227.3542    229.86416   -997.49005    2126.9459    14.873907    14.873907    14.873907            0            0            0 
   46000    293.08491   -1194.4926    216.95156   -977.54106    5.3234927    15.168984    15.168984    15.168984            0            0            0 
   46100    289.78339   -1201.1097    214.50766   -986.60208   -130.34753    14.980977    14.980977    14.980977            0            0            0 
   46200    314.42127   -1182.8665    232.74547   -950.12106   -1078.3882    15.105391    15.105391    15.105391            0            0            0 
   46300    305.80282   -1176.0073     226.3658   -949.64154   -280.53746    15.103244    15.103244    15.103244            0            0            0 
[...]
  488700    298.06132   -1168.0949    220.63527   -947.45968    1024.7335    15.017181    15.017181    15.017181            0            0            0 
  488800    279.25739   -1145.0534    206.71595   -938.33741    162.79671    15.186373    15.186373    15.186373            0            0            0 
  488900    349.82736   -1171.8708    258.95428   -912.91648   -267.80133    15.069105    15.069105    15.069105            0            0            0 
  489000    292.67302   -1175.1257    216.64666   -958.47899    308.92904     15.08657     15.08657     15.08657            0            0            0 
  489100    302.57147    -1186.227    223.97384   -962.25314    1625.5683    14.967522    14.967522    14.967522            0            0            0 
  489200    299.73019   -1189.4392    221.87063    -967.5686    2246.3776    14.979717    14.979717    14.979717            0            0            0 
  489300    311.00276   -1199.6013    230.21497   -969.38634   -1943.8774    15.187121    15.187121    15.187121            0            0            0 
  489400    296.79592   -1178.8571    219.69858   -959.15849   -98.306428    15.019379    15.019379    15.019379            0            0            0 
  489500    297.18838     -1198.65    219.98909   -978.66088    1980.6862    14.849672    14.849672    14.849672            0            0            0 
  489600    308.54331   -1201.1151     228.3944   -972.72069   -542.49297    14.885423    14.885423    14.885423            0            0            0 
  489700    293.08498   -1213.4596    216.95162   -996.50795   -1013.4426     14.83817     14.83817     14.83817            0            0            0 
  489800    304.78418   -1200.3201    225.61176    -974.7083   -500.13206    14.951881    14.951881    14.951881            0            0            0 
  489900    328.33223     -1218.52    243.04285   -975.47719   -769.93869    14.963937    14.963937    14.963937            0            0            0 
  490000    301.78788   -1210.2714     223.3938   -986.87764   -140.46702    14.823758    14.823758    14.823758            0            0            0 
  490100    285.95045   -1182.3658    211.67039   -970.69542   -652.60852     14.95275     14.95275     14.95275            0            0            0 
  490200    325.21936   -1201.0618    240.73859   -960.32316   -786.40913     15.09616     15.09616     15.09616            0            0            0 
  490300    282.89029   -1182.3118    209.40515   -972.90666   -2598.7817    15.286538    15.286538    15.286538            0            0            0 
  490400    305.10032   -1199.1995    225.84578   -973.35368    49.187953    15.104521    15.104521    15.104521            0            0            0 
  490500    334.75054   -1163.9388     247.7939   -916.14494   -706.10551    15.258951    15.258951    15.258951            0            0            0 
  490600    321.91771   -1150.1179    238.29459   -911.82329   -417.88376    15.268415    15.268415    15.268415            0            0            0 
  490700    338.95872   -1159.3271    250.90893   -908.41816    1866.5351    15.183607    15.183607    15.183607            0            0            0 
  490800    301.15434   -1177.2851    222.92483   -954.36029   -1058.4596    15.378642    15.378642    15.378642            0            0            0 
  490900    301.65464     -1176.25    223.29517   -952.95482   -1852.8123    15.361477    15.361477    15.361477            0            0            0 
  491000    325.40625    -1195.462    240.87693   -954.58508    909.95015    15.141963    15.141963    15.141963            0            0            0 
  491100    292.72254   -1184.3607    216.68332   -967.67738   -2127.3083    15.226006    15.226006    15.226006            0            0            0 
  491200    282.70693   -1201.0707    209.26942   -991.80123   -615.37829    15.104309    15.104309    15.104309            0            0            0 
  491300    295.15932   -1194.7255    218.48711   -976.23839    557.54901    15.184191    15.184191    15.184191            0            0            0 
  491400    279.22953   -1192.4564    206.69533   -985.76111    133.33944    15.189906    15.189906    15.189906            0            0            0 
  491500    297.32352   -1192.0563    220.08912   -971.96718   -542.62982    15.124567    15.124567    15.124567            0            0            0 
  491600    303.52563   -1188.0584    224.68014   -963.37826    1151.0344     15.08081     15.08081     15.08081            0            0            0 
  491700      282.645    -1195.001    209.22358   -985.77742   -1295.5103    15.072933    15.072933    15.072933            0            0            0 
  491800    284.26167    -1208.685     210.4203   -998.26475   -5.8565739    14.894619    14.894619    14.894619            0            0            0 
  491900    316.46119   -1223.2862    234.25549   -989.03071    181.88208     14.88104     14.88104     14.88104            0            0            0 
  492000    285.61589   -1187.9053    211.42274   -976.48257   -831.58539    15.137238    15.137238    15.137238            0            0            0 
  492100    320.22842   -1203.7721    237.04412   -966.72797    988.59843    14.985276    14.985276    14.985276            0            0            0 
  492200    312.69503    -1193.441    231.46765   -961.97334   -1736.1099    15.370095    15.370095    15.370095            0            0            0 
  492300    311.35343    -1200.571    230.47455    -970.0965   -506.31943    15.319002    15.319002    15.319002            0            0            0 
  492400    288.67732   -1198.8467    213.68891   -985.15777    638.13682    15.226492    15.226492    15.226492            0            0            0 
  492500    284.82097   -1189.7515    210.83431   -978.91718   -109.27242    15.243656    15.243656    15.243656            0            0            0 
  492600    314.44143   -1191.0753    232.76039   -958.31495     262.4226    15.209442    15.209442    15.209442            0            0            0 
  492700    300.90078   -1180.3887    222.73714    -957.6516   -676.51786    15.396592    15.396592    15.396592            0            0            0 
  492800    300.54604   -1187.7502    222.47455   -965.27565   -170.83921    15.406211    15.406211    15.406211            0            0            0 
  492900    311.86407   -1201.8132    230.85254   -970.96066    766.03023    15.206022    15.206022    15.206022            0            0            0 
  493000    277.37882   -1185.1263    205.32537    -979.8009   -138.92696    15.152408    15.152408    15.152408            0            0            0 
  493100     287.5416   -1182.2189    212.84821   -969.37072   -595.46225    15.182307    15.182307    15.182307            0            0            0 
  493200    274.34108   -1189.5334    203.07673    -986.4567   -499.95182    14.935629    14.935629    14.935629            0            0            0 
  493300    313.25512   -1209.8841    231.88225   -978.00182    700.15692    14.823994    14.823994    14.823994            0            0            0 
  493400    311.43602   -1208.7708    230.53568   -978.23516   -1214.9116    14.896702    14.896702    14.896702            0            0            0 
  493500    311.43014    -1204.116    230.53134   -973.58465    540.41375    14.794326    14.794326    14.794326            0            0            0 
  493600    288.97322   -1206.4847    213.90794    -992.5768   -25.012067    14.743065    14.743065    14.743065            0            0            0 
  493700    299.16044   -1205.9587    221.44888   -984.50978   -1157.7943    14.823295    14.823295    14.823295            0            0            0 
  493800    277.36441    -1228.541    205.31471   -1023.2263    1141.9129    14.847316    14.847316    14.847316            0            0            0 
  493900    302.55644   -1238.0066    223.96271   -1014.0439    -1787.199    14.926954    14.926954    14.926954            0            0            0 
  494000    280.73264   -1229.8902    207.80798   -1022.0822    67.525815    14.764033    14.764033    14.764033            0            0            0 
  494100    297.44937   -1237.5418    220.18228   -1017.3596   -1263.4058    14.824297    14.824297    14.824297            0            0            0 
  494200    264.22735   -1203.2607     195.5902   -1007.6705   -714.15348    14.819231    14.819231    14.819231            0            0            0 
  494300    287.92487   -1219.2395    213.13192   -1006.1076   -650.18673    14.669715    14.669715    14.669715            0            0            0 
  494400    292.77684   -1216.9737    216.72352   -1000.2502   -374.39433    14.724784    14.724784    14.724784            0            0            0 
  494500    291.20709   -1227.6349    215.56153   -1012.0734   -409.06279    14.817365    14.817365    14.817365            0            0            0 
  494600    292.91033   -1204.1992    216.82233   -987.37691   -113.95932    14.877229    14.877229    14.877229            0            0            0 
  494700    276.28714   -1216.0498    204.51727   -1011.5326     1297.975    14.789197    14.789197    14.789197            0            0            0 
  494800    304.28041   -1225.3032    225.23886   -1000.0643   -206.25709    14.980277    14.980277    14.980277            0            0            0 
  494900    272.10775   -1203.1704    201.42354   -1001.7468   -708.39894    15.120593    15.120593    15.120593            0            0            0 
  495000    298.44513   -1218.0764    220.91938   -997.15701   -1493.2269    15.117001    15.117001    15.117001            0            0            0 
  495100    283.88622   -1219.1924    210.14237   -1009.0501    388.85426    15.017072    15.017072    15.017072            0            0            0 
  495200    289.74991   -1211.5502    214.48288   -997.06732    105.07882    15.002149    15.002149    15.002149            0            0            0 
  495300    320.14653   -1218.9521    236.98351   -981.96861    1084.5927    14.831021    14.831021    14.831021            0            0            0 
  495400    296.32827   -1201.4239    219.35241   -982.07148   -2579.7797    15.054561    15.054561    15.054561            0            0            0 
  495500    309.53604    -1198.711    229.12926   -969.58177   -113.78761    14.994343    14.994343    14.994343            0            0            0 
  495600     285.5724   -1229.8157    211.39054   -1018.4252   -440.31056    14.972406    14.972406    14.972406            0            0            0 
  495700    313.43279   -1222.2429    232.01376   -990.22914   -776.78897    15.017583    15.017583    15.017583            0            0            0 
  495800     299.2604   -1216.0894    221.52287   -994.56653    1270.1766    14.849604    14.849604    14.849604            0            0            0 
  495900     314.0832   -1199.0018    232.49522   -966.50662   -13.042663    14.866838    14.866838    14.866838            0            0            0 
  496000    309.52468   -1194.4556    229.12084   -965.33481    1761.0704    14.856535    14.856535    14.856535            0            0            0 
  496100     296.2956   -1186.5669    219.32822   -967.23869   -1075.7256    15.105424    15.105424    15.105424            0            0            0 
  496200    278.75278   -1232.4742    206.34243   -1026.1318    1330.2652    14.936201    14.936201    14.936201            0            0            0 
  496300    290.43944   -1202.2258    214.99329    -987.2325   -1696.1991     15.24999     15.24999     15.24999            0            0            0 
  496400    308.45888   -1184.8314    228.33191   -956.49952   -1063.5273    15.372138    15.372138    15.372138            0            0            0 
  496500    261.40055   -1181.5107     193.4977   -988.01302   -83.515533    15.156153    15.156153    15.156153            0            0            0 
  496600    296.99069   -1197.5163    219.84275   -977.67355    990.33426    14.966397    14.966397    14.966397            0            0            0 
  496700    286.32241   -1197.2275    211.94572   -985.28174     110.0965    15.121858    15.121858    15.121858            0            0            0 
  496800    308.74746   -1201.5739    228.54552   -973.02841    2421.3281    15.091574    15.091574    15.091574            0            0            0 
  496900    311.36639   -1190.1931    230.48414   -959.70894    547.64548     15.11595     15.11595     15.11595            0            0            0 
  497000    323.84198   -1205.1903    239.71901   -965.47133   -260.63444    15.114259    15.114259    15.114259            0            0            0 
  497100    303.40622   -1221.9657    224.59175   -997.37397   -163.48619    15.208119    15.208119    15.208119            0            0            0 
  497200     298.9814   -1238.1525    221.31635   -1016.8361   -596.08012    15.126904    15.126904    15.126904            0            0            0 
  497300    260.83826   -1235.3068    193.08148   -1042.2253    373.46805    15.024497    15.024497    15.024497            0            0            0 
  497400    282.02778    -1208.861    208.76669   -1000.0943   -476.59647    15.034692    15.034692    15.034692            0            0            0 
  497500    314.00057   -1187.4481    232.43405   -955.01407   -2252.6866    15.177661    15.177661    15.177661            0            0            0 
  497600    293.16684   -1186.7321    217.01221   -969.71988    497.24325     15.17059     15.17059     15.17059            0            0            0 
  497700    329.72932   -1202.5457    244.07702   -958.46867   -999.20215    15.116874    15.116874    15.116874            0            0            0 
  497800    287.58105   -1193.6266    212.87742   -980.74914   -6.0978062    15.016851    15.016851    15.016851            0            0            0 
  497900    282.92264   -1202.7218    209.42909   -993.29266    221.06832    14.874061    14.874061    14.874061            0            0            0 
  498000    283.57224   -1207.3583    209.90996   -997.44835    948.31323    14.923488    14.923488    14.923488            0            0            0 
  498100    323.75256    -1205.189    239.65281   -965.53618   -696.76424    15.012863    15.012863    15.012863            0            0            0 
  498200    277.38802    -1214.173    205.33218   -1008.8408   -754.48265    15.020035    15.020035    15.020035            0            0            0 
  498300    293.61674   -1239.1824    217.34524   -1021.8372    1083.8513    14.862883    14.862883    14.862883            0            0            0 
  498400    295.13665   -1223.6675    218.47033   -1005.1972    242.03884    14.905225    14.905225    14.905225            0            0            0 
  498500    292.06785   -1227.0406     216.1987   -1010.8419    899.95466    14.896423    14.896423    14.896423            0            0            0 
  498600    290.63609   -1230.5743    215.13886   -1015.4355    749.05842    15.081077    15.081077    15.081077            0            0            0 
  498700    297.92474   -1217.5544    220.53417   -997.02023   -274.76772    15.050572    15.050572    15.050572            0            0            0 
  498800    304.80121   -1227.4582    225.62437   -1001.8339   -431.17632    14.809915    14.809915    14.809915            0            0            0 
  498900     331.8078   -1244.2595    245.61558   -998.64392    884.06069    14.779746    14.779746    14.779746            0            0            0 
  499000    302.99575   -1213.6334     224.2879   -989.34546   -1287.6633    14.981411    14.981411    14.981411            0            0            0 
  499100    331.72822   -1214.3108    245.55667    -968.7541    425.59254    14.953048    14.953048    14.953048            0            0            0 
  499200     298.7298   -1181.7965     221.1301   -960.66644    4113.0839    14.746101    14.746101    14.746101            0            0            0 
  499300    306.12337   -1195.8611    226.60308   -969.25805   -1058.3349    14.948849    14.948849    14.948849            0            0            0 
  499400    305.81786   -1193.6198    226.37693   -967.24283    934.12813    14.738044    14.738044    14.738044            0            0            0 
  499500     328.4595    -1237.115    243.13705   -993.97793   -1378.0302     14.80984     14.80984     14.80984            0            0            0 
  499600    309.10353    -1233.362    228.80909    -1004.553    449.95913    14.709505    14.709505    14.709505            0            0            0 
  499700    289.03117   -1210.3137    213.95084   -996.36287    2524.2743    14.760449    14.760449    14.760449            0            0            0 
  499800    283.75982   -1198.7765    210.04881   -988.72769   -159.75398    14.945074    14.945074    14.945074            0            0            0 
  499900    314.87992   -1212.2882    233.08498   -979.20318    720.17869    14.823953    14.823953    14.823953            0            0            0 
SHAKE stats (type/ave/delta) on step 500000
  1 0.95715 6.16704e-06 636
  500000    275.05198   -1203.1705    203.60297    -999.5675    259.95616    14.780397    14.780397    14.780397            0            0            0 
Loop time of 668.075 on 1 procs for 500000 steps with 320 atoms

Performance: 129.327 ns/day, 0.186 hours/ns, 748.419 timesteps/s
99.1% CPU use with 1 MPI tasks x no OpenMP threads

MPI task timing breakdown:
Section |  min time  |  avg time  |  max time  |%varavg| %total
---------------------------------------------------------------
Pair    | 281.8      | 281.8      | 281.8      |   0.0 | 42.18
Bond    | 8.2625     | 8.2625     | 8.2625     |   0.0 |  1.24
Kspace  | 205.58     | 205.58     | 205.58     |   0.0 | 30.77
Neigh   | 63.285     | 63.285     | 63.285     |   0.0 |  9.47
Comm    | 10.841     | 10.841     | 10.841     |   0.0 |  1.62
Output  | 6.1801     | 6.1801     | 6.1801     |   0.0 |  0.93
Modify  | 89.896     | 89.896     | 89.896     |   0.0 | 13.46
Other   |            | 2.231      |            |       |  0.33

Nlocal:    320 ave 320 max 320 min
Histogram: 1 0 0 0 0 0 0 0 0 0
Nghost:    2039 ave 2039 max 2039 min
Histogram: 1 0 0 0 0 0 0 0 0 0
Neighs:    22679 ave 22679 max 22679 min
Histogram: 1 0 0 0 0 0 0 0 0 0

Total # of neighbors = 22679
Ave neighs/atom = 70.8719
Ave special neighs/atom = 1.9875
Neighbor list builds = 39099
Dangerous builds = 2460

unfix           1
unfix           2
unfix           3
unfix           4

# Write final configuration
write_data	data.final
System init for write_data ...
PPPM initialization ...
  using 12-bit tables for long-range coulomb (src/kspace.cpp:332)
  G vector (1/distance) = 0.409377
  grid = 8 8 8
  stencil order = 5
  estimated absolute RMS force accuracy = 0.69825
  estimated relative force accuracy = 0.00210276
  using double precision KISS FFT
  3d grid and FFT values/proc = 3375 512
Neighbor list info ...
  update every 1 steps, delay 10 steps, check yes
  max neighbors/atom: 2000, page size: 100000
  master list distance cutoff = 7
  ghost atom cutoff = 7
  binsize = 3.5, bins = 5 5 5
  3 neighbor lists, perpetual/occasional/extra = 3 0 0
  (1) pair lj/cut/coul/long, perpetual, skip from (3)
      attributes: half, newton on
      pair build: skip
      stencil: none
      bin: none
  (2) pair buck/coul/long, perpetual, skip from (3)
      attributes: half, newton on
      pair build: skip
      stencil: none
      bin: none
  (3) neighbor class addition, perpetual
      attributes: half, newton on
      pair build: half/bin/newton
      stencil: half/bin/3d/newton
      bin: standard

Total wall time: 0:11:08
